10
  Step 0: 0.0 fs
C       -1.803707       -0.067739        0.000065
H       -2.311472        0.330654        0.889283
H       -2.311389        0.329972       -0.889466
H       -1.816430       -1.165821        0.000641
C        1.803678        0.067713        0.000028
H        2.310885       -0.329673        0.890052
H        2.312191       -0.330888       -0.888631
H        1.816232        1.165789       -0.000424
N        0.410953       -0.460075       -0.000160
N       -0.410931        0.460090       -0.000127
10
  Step 1: 1.0 fs
C       -1.795037       -0.068585        0.001252
H       -2.336961        0.341469        0.902517
H       -2.323347        0.277590       -0.851662
H       -1.844142       -1.166138       -0.036590
C        1.794334        0.060759       -0.008211
H        2.250704       -0.349426        0.947705
H        2.282200       -0.304543       -0.849747
H        1.863608        1.260968       -0.005465
N        0.415244       -0.464554       -0.000948
N       -0.406876        0.466943       -0.000874
10
  Step 2: 2.0 fs
C       -1.786577       -0.069638        0.003662
H       -2.357310        0.348360        0.909874
H       -2.339905        0.233114       -0.825290
H       -1.869216       -1.166744       -0.070386
C        1.784783        0.055984       -0.014106
H        2.189708       -0.364786        0.995270
H        2.263771       -0.287489       -0.827462
H        1.907493        1.332195       -0.009829
N        0.419134       -0.468444       -0.001887
N       -0.402814        0.473326       -0.001656
10
  Step 3: 3.0 fs
C       -1.778535       -0.071064        0.007984
H       -2.368992        0.348857        0.908234
H       -2.364051        0.202240       -0.817879
H       -1.889067       -1.167769       -0.097591
C        1.774809        0.054344       -0.015893
H        2.129225       -0.372865        1.025735
H        2.266202       -0.286557       -0.834264
H        1.944630        1.369777       -0.013172
N        0.422257       -0.471269       -0.003126
N       -0.398771        0.478847       -0.002509
10
  Step 4: 4.0 fs
C       -1.771388       -0.072852        0.013983
H       -2.370419        0.342104        0.897323
H       -2.393511        0.186553       -0.828145
H       -1.901471       -1.169111       -0.115795
C        1.764921        0.055789       -0.013616
H        2.072128       -0.372516        1.036104
H        2.288026       -0.300798       -0.865074
H        1.972413        1.370656       -0.015279
N        0.424299       -0.472695       -0.004806
N       -0.394811        0.483214       -0.003463
10
  Step 5: 5.0 fs
C       -1.765780       -0.074894        0.020692
H       -2.362087        0.328838        0.879572
H       -2.421510        0.184486       -0.848002
H       -1.904856       -1.170401       -0.123609
C        1.756242        0.059712       -0.008735
H        2.022114       -0.364175        1.027221
H        2.319006       -0.323628       -0.901819
H        1.988742        1.334957       -0.015991
N        0.425013       -0.472538       -0.007059
N       -0.391041        0.486252       -0.004537
10
  Step 6: 6.0 fs
C       -1.762152       -0.077131        0.026908
H       -2.346714        0.311371        0.860055
H       -2.440847        0.193249       -0.868337
H       -1.898454       -1.171235       -0.120730
C        1.749770        0.065466       -0.002904
H        1.983305       -0.349943        1.003844
H        2.348840       -0.348652       -0.927988
H        1.992075        1.265597       -0.015279
N        0.424244       -0.470754       -0.010001
N       -0.387607        0.487908       -0.005742
10
  Step 7: 7.0 fs
C       -1.760522       -0.079581        0.031490
H       -2.329059        0.293357        0.846135
H       -2.446554        0.209862       -0.882298
H       -1.882330       -1.171577       -0.107827
C        1.746005        0.072335        0.002470
H        1.959848       -0.333731        0.974694
H        2.370904       -0.371811       -0.934038
H        1.982036        1.170764       -0.013396
N        0.421963       -0.467428       -0.013724
N       -0.384694        0.488244       -0.007074
10
  Step 8: 8.0 fs
C       -1.760569       -0.082269        0.033541
H       -2.314528        0.278777        0.845597
H       -2.436406        0.231483       -0.885878
H       -1.857308       -1.172022       -0.086340
C        1.744845        0.078897        0.006233
H        1.955226       -0.320852        0.951297
H        2.381949       -0.390959       -0.916325
H        1.961074        1.070595       -0.011126
N        0.418292       -0.462761       -0.018269
N       -0.382521        0.487442       -0.008515
10
  Step 9: 9.0 fs
C       -1.761925       -0.085078        0.032700
H       -2.306228        0.269987        0.862626
H       -2.410617        0.255536       -0.877570
H       -1.824828       -1.173684       -0.058224
C        1.745561        0.082056        0.007700
H        1.971080       -0.315927        0.943546
H        2.381117       -0.405114       -0.875308
H        1.936588        1.005741       -0.009965
N        0.413529       -0.457056       -0.023613
N       -0.381321        0.485789       -0.010032
10
  Step 10: 10.0 fs
C       -1.764370       -0.087720        0.029395
H       -2.302961        0.266385        0.894666
H       -2.371789        0.279974       -0.858474
H       -1.786800       -1.177595       -0.025704
C        1.747264        0.078214        0.007041
H        2.005990       -0.319802        0.953903
H        2.369746       -0.414440       -0.815143
H        1.917205        1.020682       -0.011448
N        0.408105       -0.450723       -0.029663
N       -0.381329        0.483668       -0.011574
10
  Step 11: 11.0 fs
C       -1.767713       -0.089922        0.024776
H       -2.300491        0.265239        0.933712
H       -2.325184        0.303814       -0.832941
H       -1.745512       -1.183811        0.008891
C        1.749901        0.068294        0.005331
H        2.055207       -0.328813        0.976531
H        2.352343       -0.421267       -0.744769
H        1.901129        1.104592       -0.015500
N        0.402495       -0.444267       -0.036274
N       -0.382753        0.481513       -0.013078
10
  Step 12: 12.0 fs
C       -1.771555       -0.091681        0.020388
H       -2.294530        0.263617        0.970551
H       -2.278602        0.327759       -0.808870
H       -1.703605       -1.190895        0.043133
C        1.753532        0.056668        0.004345
H        2.111728       -0.337219        1.001933
H        2.338196       -0.431486       -0.679189
H        1.882326        1.207463       -0.021044
N        0.397175       -0.438206       -0.043282
N       -0.385749        0.479761       -0.014461
10
  Step 13: 13.0 fs
C       -1.775282       -0.093304        0.017775
H       -2.282548        0.259637        0.997928
H       -2.240795        0.354017       -0.796054
H       -1.663960       -1.196392        0.074473
C        1.757514        0.046729        0.006026
H        2.168187       -0.340033        1.021950
H        2.339931       -0.453715       -0.636355
H        1.859469        1.294126       -0.027437
N        0.392611       -0.432974       -0.050515
N       -0.390384        0.478793       -0.015641
10
  Step 14: 14.0 fs
C       -1.778373       -0.095113        0.017931
H       -2.263999        0.252687        1.011597
H       -2.217779        0.383849       -0.800707
H       -1.629418       -1.198044        0.100401
C        1.761366        0.040017        0.011355
H        2.218335       -0.334249        1.031720
H        2.364040       -0.492095       -0.625576
H        1.834067        1.348704       -0.034450
N        0.389177       -0.428864       -0.057809
N       -0.396598        0.478874       -0.016536
10
  Step 15: 15.0 fs
C       -1.780660       -0.097089        0.020842
H       -2.240114        0.243310        1.010604
H       -2.210131        0.414543       -0.820524
H       -1.602403       -1.194846        0.118781
C        1.765614        0.036446        0.019708
H        2.257728       -0.318819        1.029572
H        2.402971       -0.539430       -0.639947
H        1.808215        1.365282       -0.041905
N        0.387079       -0.426016       -0.065010
N       -0.404173        0.480117       -0.017085
10
  Step 16: 16.0 fs
C       -1.782229       -0.098869        0.025620
H       -2.213713        0.233126        0.997431
H       -2.214455        0.439941       -0.846514
H       -1.584571       -1.187485        0.128117
C        1.771193        0.035247        0.029675
H        2.283862       -0.294309        1.016337
H        2.442795       -0.583167       -0.665542
H        1.783973        1.342595       -0.049608
N        0.386333       -0.424425       -0.071976
N       -0.412739        0.482469       -0.017258
10
  Step 17: 17.0 fs
C       -1.783162       -0.100039        0.030972
H       -2.189011        0.224754        0.978117
H       -2.226556        0.453832       -0.868835
H       -1.576703       -1.178140        0.127671
C        1.778610        0.035786        0.039895
H        2.296398       -0.262754        0.995375
H        2.472801       -0.613588       -0.691172
H        1.763385        1.282404       -0.057457
N        0.386779       -0.423978       -0.078576
N       -0.421796        0.485742       -0.017056
10
  Step 18: 18.0 fs
C       -1.783430       -0.100351        0.035560
H       -2.171074        0.221484        0.961588
H       -2.243167        0.452302       -0.880469
H       -1.578777       -1.169870        0.117466
C        1.787761        0.037585        0.049160
H        2.297557       -0.227608        0.973162
H        2.487391       -0.625515       -0.710069
H        1.748501        1.190829       -0.065726
N        0.388128       -0.424489       -0.084686
N       -0.430768        0.489648       -0.016501
10
  Step 19: 19.0 fs
C       -1.782992       -0.099727        0.038319
H       -2.164233        0.226040        0.956388
H       -2.262194        0.434134       -0.877862
H       -1.590165       -1.165654        0.098248
C        1.798101        0.039774        0.056373
H        2.291979       -0.193346        0.959127
H        2.484651       -0.617120       -0.718540
H        1.740991        1.083097       -0.075752
N        0.390009       -0.425735       -0.090194
N       -0.439051        0.493842       -0.015627
10
  Step 20: 20.0 fs
C       -1.781961       -0.098179        0.038874
H       -2.169898        0.238725        0.965592
H       -2.282705        0.400635       -0.860817
H       -1.609884       -1.167298        0.071451
C        1.808967        0.040189        0.060804
H        2.285187       -0.164162        0.963225
H        2.465288       -0.589194       -0.715063
H        1.740958        0.991833       -0.091458
N        0.392030       -0.427472       -0.094995
N       -0.446081        0.497970       -0.014472
10
  Step 21: 21.0 fs
C       -1.780634       -0.095807        0.037728
H       -2.185711        0.256654        0.984676
H       -2.305063        0.355525       -0.832514
H       -1.636757       -1.174560        0.039158
C        1.819926        0.035529        0.062665
H        2.280246       -0.141950        0.990040
H        2.432633       -0.545493       -0.700518
H        1.745962        0.963230       -0.119948
N        0.393830       -0.429443       -0.099007
N       -0.451385        0.501694       -0.013085
10
  Step 22: 22.0 fs
C       -1.779339       -0.092907        0.035980
H       -2.207054        0.275170        1.005016
H       -2.331201        0.304728       -0.799474
H       -1.669344       -1.185094        0.004046
C        1.830527        0.025374        0.062940
H        2.275939       -0.125730        1.034903
H        2.393883       -0.494139       -0.680014
H        1.754446        1.009863       -0.163611
N        0.395128       -0.431384       -0.102178
N       -0.454629        0.504713       -0.011528
10
  Step 23: 23.0 fs
C       -1.778271       -0.089987        0.034843
H       -2.229191        0.289866        1.018774
H       -2.364431        0.255459       -0.770477
H       -1.705753       -1.195424       -0.030770
C        1.839779        0.013889        0.062808
H        2.268682       -0.113300        1.086387
H        2.361622       -0.448515       -0.665686
H        1.768191        1.092869       -0.213012
N        0.395760       -0.433043       -0.104488
N       -0.455645        0.506789       -0.009882
10
  Step 24: 24.0 fs
C       -1.777582       -0.087560        0.035165
H       -2.248395        0.297674        1.021151
H       -2.407400        0.214014       -0.752871
H       -1.743580       -1.202300       -0.062070
C        1.846468        0.005242        0.063837
H        2.255476       -0.103007        1.131977
H        2.350802       -0.423161       -0.674291
H        1.788259        1.174306       -0.257273
N        0.395698       -0.434190       -0.105950
N       -0.454426        0.507755       -0.008239
10
  Step 25: 25.0 fs
C       -1.777634       -0.085918        0.037053
H       -2.262324        0.297120        1.010747
H       -2.458676        0.183724       -0.748165
H       -1.780123       -1.203693       -0.086996
C        1.850133        0.001284        0.066808
H        2.235217       -0.094172        1.162329
H        2.367189       -0.423226       -0.711633
H        1.813889        1.234977       -0.290066
N        0.395032       -0.434665       -0.106598
N       -0.451100        0.507535       -0.006686
10
  Step 26: 26.0 fs
C       -1.779051       -0.085111        0.039898
H       -2.270144        0.288306        0.989330
H       -2.511879        0.165148       -0.751918
H       -1.812752       -1.199090       -0.103454
C        1.851513        0.001896        0.070676
H        2.208553       -0.086807        1.172783
H        2.401658       -0.440988       -0.762934
H        1.843518        1.267007       -0.308476
N        0.393921       -0.434408       -0.106485
N       -0.445913        0.506144       -0.005291
10
  Step 27: 27.0 fs
C       -1.782407       -0.085087        0.042743
H       -2.272737        0.272914        0.961777
H       -2.558802        0.157609       -0.757843
H       -1.839276       -1.189477       -0.110367
C        1.851657        0.006326        0.073700
H        2.177427       -0.081314        1.163238
H        2.440688       -0.465634       -0.807658
H        1.875385        1.267540       -0.311378
N        0.392577       -0.433473       -0.105690
N       -0.439208        0.503689       -0.004093
10
  Step 28: 28.0 fs
C       -1.787926       -0.085770        0.044581
H       -2.272773        0.254115        0.935806
H       -2.592694        0.160189       -0.761123
H       -1.858181       -1.177233       -0.107747
C        1.851254        0.013932        0.074441
H        2.144814       -0.078418        1.138075
H        2.474526       -0.489721       -0.832026
H        1.907680        1.236359       -0.298739
N        0.391252       -0.432024       -0.104314
N       -0.431419        0.500361       -0.003105
10
  Step 29: 29.0 fs
C       -1.795433       -0.087047        0.044519
H       -2.274121        0.235946        0.920733
H       -2.609424        0.171877       -0.759184
H       -1.868693       -1.165918       -0.096591
C        1.850610        0.024164        0.071834
H        2.114462       -0.079288        1.106037
H        2.497724       -0.509265       -0.829670
H        1.938585        1.176169       -0.271737
N        0.390216       -0.430309       -0.102481
N       -0.423053        0.496425       -0.002316
10
  Step 30: 30.0 fs
C       -1.804540       -0.088693        0.042062
H       -2.279782        0.221720        0.923641
H       -2.607469        0.191556       -0.751421
H       -1.870757       -1.159643       -0.078623
C        1.849799        0.036212        0.065187
H        2.090172       -0.085550        1.078714
H        2.507729       -0.522530       -0.799222
H        1.966522        1.095411       -0.233664
N        0.389758       -0.428628       -0.100327
N       -0.414664        0.492202       -0.001694
10
  Step 31: 31.0 fs
C       -1.814890       -0.090361        0.037433
H       -2.289528        0.212333        0.945009
H       -2.587776        0.218076       -0.738964
H       -1.864941       -1.161639       -0.055896
C        1.848738        0.048348        0.054625
H        2.074353       -0.098836        1.065699
H        2.504199       -0.529469       -0.743090
H        1.991225        1.014874       -0.191649
N        0.390167       -0.427276       -0.097998
N       -0.406816        0.488041       -0.001201
10
  Step 32: 32.0 fs
C       -1.826150       -0.091764        0.031608
H       -2.299923        0.206283        0.978247
H       -2.554000        0.250548       -0.724903
H       -1.852359       -1.172474       -0.030479
C        1.847058        0.057367        0.041610
H        2.066806       -0.119551        1.068748
H        2.489306       -0.532007       -0.667560
H        2.015981        0.973253       -0.156985
N        0.391718       -0.426491       -0.095633
N       -0.400035        0.484276       -0.000803
10
  Step 33: 33.0 fs
C       -1.837816       -0.092913        0.025988
H       -2.306738        0.201265        1.013643
H       -2.512458        0.288744       -0.714357
H       -1.834691       -1.189246       -0.004457
C        1.844082        0.060578        0.028372
H        2.065048       -0.145902        1.081673
H        2.469111       -0.535327       -0.583759
H        2.046182        1.004020       -0.137396
N        0.394620       -0.426409       -0.093358
N       -0.394756        0.481165       -0.000468
10
  Step 34: 34.0 fs
C       -1.849140       -0.094138        0.021970
H       -2.307108        0.195569        1.042610
H       -2.470856        0.333164       -0.713465
H       -1.814182       -1.206665        0.019888
C        1.839420        0.059868        0.016728
H        2.065764       -0.174254        1.095808
H        2.454897       -0.549202       -0.507438
H        2.079687        1.089358       -0.128752
N        0.398947       -0.427077       -0.091268
N       -0.391268        0.478854       -0.000170
10
  Step 35: 35.0 fs
C       -1.859412       -0.095809        0.020524
H       -2.300025        0.188471        1.059343
H       -2.434813        0.383613       -0.726016
H       -1.793421       -1.219353        0.040094
C        1.833045        0.059300        0.007974
H        2.065943       -0.200325        1.104515
H        2.459094       -0.584099       -0.452889
H        2.108801        1.186128       -0.124492
N        0.404622       -0.428431       -0.089423
N       -0.389689        0.477342        0.000113
10
  Step 36: 36.0 fs
C       -1.868237       -0.097982        0.021831
H       -2.286179        0.180209        1.061289
H       -2.405137        0.436960       -0.749974
H       -1.774904       -1.223706        0.053820
C        1.825576        0.060895        0.002479
H        2.063408       -0.220236        1.104312
H        2.483394       -0.639563       -0.423089
H        2.128339        1.265281       -0.121692
N        0.411421       -0.430291       -0.087852
N       -0.389964        0.476492        0.000397
10
  Step 37: 37.0 fs
C       -1.875479       -0.100304        0.025318
H       -2.267682        0.171864        1.049304
H       -2.379139        0.486886       -0.778202
H       -1.760651       -1.218722        0.059196
C        1.818415        0.064360       -0.000279
H        2.057037       -0.231237        1.094527
H        2.516504       -0.701748       -0.411277
H        2.136161        1.313356       -0.119579
N        0.418974       -0.432380       -0.086558
N       -0.391891        0.476057        0.000689
10
  Step 38: 38.0 fs
C       -1.880996       -0.102226        0.029970
H       -2.247927        0.165315        1.027949
H       -2.353993        0.526503       -0.802641
H       -1.752017       -1.206058        0.055018
C        1.812896        0.068707       -0.000990
H        2.046818       -0.231988        1.076685
H        2.545496       -0.755079       -0.410159
H        2.131688        1.325162       -0.118130
N        0.426814       -0.434382       -0.085544
N       -0.395158        0.475731        0.000993
10
  Step 39: 39.0 fs
C       -1.884514       -0.103226        0.034597
H       -2.231275        0.163114        1.005298
H       -2.328448        0.550676       -0.817315
H       -1.749659       -1.189574        0.040802
C        1.809794        0.073195       -0.000266
H        2.033787       -0.222637        1.054460
H        2.562213       -0.789308       -0.415198
H        2.115190        1.299835       -0.117681
N        0.434429       -0.436001       -0.084810
N       -0.399386        0.475205        0.001314
10
  Step 40: 40.0 fs
C       -1.885681       -0.102914        0.038062
H       -2.222217        0.167868        0.991132
H       -2.302897        0.556937       -0.819257
H       -1.753637       -1.174354        0.016781
C        1.809338        0.077368        0.001289
H        2.019831       -0.204773        1.033723
H        2.563014       -0.799365       -0.423855
H        2.087788        1.240152       -0.118959
N        0.441313       -0.437003       -0.084361
N       -0.404167        0.474207        0.001659
10
  Step 41: 41.0 fs
C       -1.884225       -0.101058        0.039704
H       -2.223542        0.180797        0.991942
H       -2.279034        0.545698       -0.808653
H       -1.763667       -1.165111       -0.016086
C        1.811318        0.080682        0.003071
H        2.007289       -0.181068        1.021844
H        2.547212       -0.783704       -0.434593
H        2.052047        1.154852       -0.123399
N        0.447013       -0.437235       -0.084195
N       -0.409100        0.472526        0.002051
10
  Step 42: 42.0 fs
C       -1.880066       -0.097663        0.039731
H       -2.234824        0.200362        1.006463
H       -2.259708        0.520471       -0.789060
H       -1.779412       -1.164079       -0.056056
C        1.815090        0.081881        0.004716
H        1.998259       -0.154345        1.025204
H        2.516498       -0.743755       -0.446622
H        2.013118        1.064629       -0.133959
N        0.451159       -0.436642       -0.084296
N       -0.413828        0.470024        0.002526
10
  Step 43: 43.0 fs
C       -1.873266       -0.093114        0.039139
H       -2.252793        0.222628        1.026722
H       -2.248898        0.488017       -0.767631
H       -1.800534       -1.169807       -0.100488
C        1.819560        0.078528        0.006552
H        1.993923       -0.126308        1.045461
H        2.475466       -0.684814       -0.460409
H        1.978924        1.007157       -0.156262
N        0.453491       -0.435270       -0.084627
N       -0.418058        0.466648        0.003129
10
  Step 44: 44.0 fs
C       -1.863943       -0.088180        0.039206
H       -2.273120        0.243065        1.043233
H       -2.251235        0.457347       -0.754061
H       -1.826405       -1.177933       -0.145911
C        1.823519        0.068938        0.009664
H        1.994542       -0.097116        1.077994
H        2.433265       -0.618253       -0.479246
H        1.954727        1.016054       -0.196220
N        0.453860       -0.433276       -0.085131
N       -0.421584        0.462432        0.003904
10
  Step 45: 45.0 fs
C       -1.852336       -0.083653        0.040798
H       -2.291944        0.258114        1.049043
H       -2.269919        0.435975       -0.755901
H       -1.855765       -1.183388       -0.188442
C        1.826040        0.055959        0.015097
H        1.999983       -0.066456        1.114105
H        2.404466       -0.562057       -0.511106
H        1.937100        1.077411       -0.250776
N        0.452230       -0.430926       -0.085747
N       -0.424300        0.457505        0.004896
10
  Step 46: 46.0 fs
C       -1.839044       -0.079883        0.043833
H       -2.306442        0.265657        1.040830
H       -2.303556        0.425734       -0.772527
H       -1.886705       -1.182342       -0.224417
C        1.826434        0.044393        0.023305
H        2.010081       -0.034674        1.144642
H        2.402132       -0.531535       -0.564723
H        1.920759        1.151749       -0.308733
N        0.448715       -0.428548       -0.086414
N       -0.426207        0.452089        0.006139
10
  Step 47: 47.0 fs
C       -1.825055       -0.076750        0.047335
H       -2.315034        0.265056        1.018827
H       -2.345620        0.423213       -0.795350
H       -1.916924       -1.172925       -0.250928
C        1.824983        0.036512        0.033623
H        2.024636       -0.002867        1.162725
H        2.424090       -0.524771       -0.636422
H        1.903454        1.212578       -0.360288
N        0.443593       -0.426491       -0.087079
N       -0.427393        0.446493        0.007665
10
  Step 48: 48.0 fs
C       -1.811442       -0.074003        0.050027
H       -2.317609        0.257140        0.986592
H       -2.387601        0.423924       -0.814204
H       -1.944100       -1.155376       -0.266216
C        1.822812        0.032337        0.044319
H        2.043313        0.027533        1.165050
H        2.455869       -0.528176       -0.709463
H        1.884852        1.248288       -0.399583
N        0.437274       -0.425124       -0.087694
N       -0.428011        0.441092        0.009503
10
  Step 49: 49.0 fs
C       -1.799047       -0.071475        0.050759
H       -2.315759        0.244162        0.950738
H       -2.422215        0.424994       -0.822130
H       -1.966166       -1.132011       -0.269871
C        1.820853        0.031441        0.053623
H        2.065763        0.055116        1.152055
H        2.484356       -0.530727       -0.767645
H        1.865313        1.254840       -0.423512
N        0.430251       -0.424829       -0.088218
N       -0.428246        0.436299        0.011687
10
  Step 50: 50.0 fs
C       -1.788366       -0.069058        0.048647
H       -2.312613        0.229446        0.920097
H       -2.444571        0.425334       -0.816117
H       -1.981558       -1.107168       -0.262879
C        1.819522        0.033553        0.060171
H        2.091850        0.078711        1.127611
H        2.502110       -0.527126       -0.801329
H        1.845441        1.231725       -0.430601
N        0.423033       -0.425980       -0.088617
N       -0.428277        0.432520        0.014249
10
  Step 51: 51.0 fs
C       -1.779632       -0.066605        0.043191
H       -2.311535        0.216371        0.903220
H       -2.452147        0.425106       -0.796318
H       -1.989395       -1.086795       -0.247430
C        1.818867        0.038477        0.062945
H        2.121816        0.097454        1.098282
H        2.505889       -0.515799       -0.806371
H        1.825900        1.180929       -0.420666
N        0.416080       -0.428895       -0.088853
N       -0.428239        0.430096        0.017220
10
  Step 52: 52.0 fs
C       -1.773008       -0.063862        0.034519
H       -2.313714        0.206823        0.904383
H       -2.444686        0.425369       -0.765406
H       -1.989453       -1.077272       -0.226358
C        1.818719        0.045859        0.061334
H        2.156116        0.110785        1.071584
H        2.495210       -0.497398       -0.782548
H        1.807303        1.108112       -0.395356
N        0.409740       -0.433786       -0.088881
N       -0.428188        0.429248        0.020621
10
  Step 53: 53.0 fs
C       -1.768698       -0.060627        0.023490
H       -2.316797        0.200500        0.921393
H       -2.424544        0.428151       -0.728575
H       -1.981835       -1.082867       -0.202228
C        1.818805        0.054835        0.055527
H        2.194578        0.118304        1.052927
H        2.472071       -0.474501       -0.733347
H        1.789949        1.026583       -0.359892
N        0.404231       -0.440705       -0.088640
N       -0.428079        0.430037        0.024446
10
  Step 54: 54.0 fs
C       -1.766781       -0.057068        0.011510
H       -2.316318        0.195709        0.947442
H       -2.397265        0.436771       -0.693732
H       -1.966568       -1.103057       -0.176705
C        1.818777        0.063528        0.047070
H        2.235343        0.119750        1.043157
H        2.442049       -0.452438       -0.667327
H        1.773233        0.963847       -0.325798
N        0.399639       -0.449511       -0.088059
N       -0.427774        0.432344        0.028657
10
  Step 55: 55.0 fs
C       -1.767005       -0.053868        0.000192
H       -2.308268        0.190692        0.974744
H       -2.371279        0.455780       -0.670716
H       -1.943704       -1.132118       -0.150904
C        1.818095        0.069430        0.038820
H        2.274715        0.115361        1.039102
H        2.416191       -0.440702       -0.600021
H        1.755109        0.957955       -0.308923
N        0.395952       -0.459867       -0.087057
N       -0.427075        0.435878        0.033179
10
  Step 56: 56.0 fs
C       -1.768899       -0.051879       -0.009112
H       -2.290591        0.184355        0.996963
H       -2.354405        0.488683       -0.667373
H       -1.913877       -1.161676       -0.126130
C        1.815831        0.072447        0.033193
H        2.308212        0.106112        1.036589
H        2.410033       -0.452096       -0.551597
H        1.734539        1.020189       -0.313990
N        0.393089       -0.471268       -0.085545
N       -0.425772        0.440210        0.037902
10
  Step 57: 57.0 fs
C       -1.772179       -0.051520       -0.015803
H       -2.263363        0.176387        1.009937
H       -2.348595        0.533842       -0.684120
H       -1.878635       -1.184044       -0.104197