10
  Step 0: 0.0 fs
C       -1.803707       -0.067739        0.000064
H       -2.311478        0.330665        0.889280
H       -2.311399        0.329971       -0.889441
H       -1.816428       -1.165810        0.000662
C        1.803673        0.067713        0.000031
H        2.310883       -0.329676        0.890056
H        2.312191       -0.330875       -0.888618
H        1.816231        1.165780       -0.000426
N        0.410954       -0.460073       -0.000165
N       -0.410926        0.460087       -0.000129
10
  Step 1: 1.0 fs
C       -1.794501       -0.069340       -0.003011
H       -2.334142        0.374208        0.899616
H       -2.341766        0.253265       -0.872388
H       -1.840238       -1.165433       -0.015279
C        1.793316        0.077165       -0.000772
H        2.275409       -0.335984        0.925738
H        2.272337       -0.326063       -0.891695
H        1.858716        1.063421       -0.003627
N        0.407816       -0.454857       -0.006396
N       -0.398908        0.457979        0.006485
10
  Step 2: 2.0 fs
C       -1.785815       -0.070825       -0.004934
H       -2.350773        0.411848        0.901445
H       -2.372947        0.183063       -0.862426
H       -1.861679       -1.165993       -0.027530
C        1.783130        0.082428       -0.000901
H        2.238935       -0.340956        0.954164
H        2.235893       -0.324186       -0.895730
H        1.900861        1.010073       -0.006469
N        0.405166       -0.450109       -0.012643
N       -0.387774        0.456440        0.012973
10
  Step 3: 3.0 fs
C       -1.778121       -0.072095       -0.005165
H       -2.357706        0.439587        0.890341
H       -2.404392        0.123848       -0.863255
H       -1.878421       -1.168195       -0.032696
C        1.772918        0.080276        0.000087
H        2.201732       -0.344061        0.970673
H        2.205654       -0.327709       -0.901422
H        1.946263        1.043224       -0.008768
N        0.403474       -0.446241       -0.018940
N       -0.378373        0.456020        0.019237
10
  Step 4: 4.0 fs
C       -1.771935       -0.073093       -0.003814
H       -2.353618        0.455487        0.865434
H       -2.432858        0.077776       -0.873798
H       -1.888470       -1.172086       -0.028172
C        1.763090        0.073186        0.002285
H        2.165324       -0.345678        0.973861
H        2.183484       -0.337784       -0.908598
H        1.991676        1.132626       -0.010328
N        0.403041       -0.443566       -0.025325
N       -0.371393        0.457135        0.025205
10
  Step 5: 5.0 fs
C       -1.767720       -0.073875       -0.001439
H       -2.339412        0.459702        0.828932
H       -2.453424        0.045394       -0.889937
H       -1.890433       -1.176891       -0.012434
C        1.754543        0.065152        0.005392
H        2.132222       -0.346750        0.965447
H        2.170117       -0.353588       -0.915533
H        2.028477        1.229340       -0.010936
N        0.403932       -0.442229       -0.031839
N       -0.367279        0.459981        0.030824
10
  Step 6: 6.0 fs
C       -1.765647       -0.074680        0.001167
H       -2.318593        0.454903        0.786384
H       -2.461540        0.026257       -0.907212
H       -1.883666       -1.181263        0.014867
C        1.747865        0.058316        0.008779
H        2.105653       -0.348703        0.950059
H        2.165326       -0.372805       -0.919300
H        2.051341        1.306027       -0.010526
N        0.405989       -0.442146       -0.038510
N       -0.366180        0.464489        0.036050
10
  Step 7: 7.0 fs
C       -1.765461       -0.075943        0.003064
H       -2.297573        0.446688        0.746872
H       -2.454209        0.019166       -0.922180
H       -1.868308       -1.183754        0.052996
C        1.743292        0.053525        0.011639
H        2.089107       -0.353449        0.934517
H        2.168370       -0.392725       -0.916991
H        2.058445        1.351327       -0.009119
N        0.408848       -0.443011       -0.045341
N       -0.367965        0.470338        0.040831
10
  Step 8: 8.0 fs
C       -1.766517       -0.078220        0.003315
H       -2.284767        0.442891        0.721594
H       -2.430437        0.022321       -0.932934
H       -1.845230       -1.183275        0.100311
C        1.740889        0.051099        0.013276
H        2.085269       -0.362735        0.925420
H        2.178384       -0.411040       -0.906765
H        2.049671        1.360945       -0.006768
N        0.412005       -0.444362       -0.052303
N       -0.372266        0.477025        0.045112
10
  Step 9: 9.0 fs
C       -1.768128       -0.081856        0.001446
H       -2.286541        0.449671        0.718255
H       -2.391300        0.033496       -0.939260
H       -1.815920       -1.179362        0.154479
C        1.740709        0.051082        0.013417
H        2.094722       -0.376886        0.925786
H        2.194627       -0.426233       -0.888380
H        2.025702        1.333758       -0.003572
N        0.414907       -0.445677       -0.059331
N       -0.378557        0.483966        0.048838
10
  Step 10: 10.0 fs
C       -1.769970       -0.086609       -0.002024
H       -2.302552        0.466633        0.734840
H       -2.339984        0.050258       -0.942912
H       -1.782330       -1.172142        0.212653
C        1.742826        0.053249        0.012353
H        2.115348       -0.394071        0.933491
H        2.216585       -0.437692       -0.863232
H        1.987901        1.271178        0.000299
N        0.417047       -0.446475       -0.066338
N       -0.386237        0.490599        0.051969
10
  Step 11: 11.0 fs
C       -1.772040       -0.091749       -0.005723
H       -2.326706        0.487493        0.761110
H       -2.281532        0.070245       -0.947669
H       -1.746722       -1.162013        0.271646
C        1.747235        0.056959        0.010759
H        2.143057       -0.410947        0.943099
H        2.243941       -0.445603       -0.833989
H        1.938840        1.179433        0.004592
N        0.418030       -0.446386       -0.073226
N       -0.394689        0.496455        0.054492
10
  Step 12: 12.0 fs
C       -1.774333       -0.096527       -0.008088
H       -2.352056        0.505096        0.785549
H       -2.221896        0.091359       -0.958524
H       -1.711518       -1.149369        0.328069
C        1.753652        0.060666        0.009357
H        2.173260       -0.424041        0.949232
H        2.276407       -0.450604       -0.803970
H        1.883375        1.076339        0.009005
N        0.417608       -0.445179       -0.079897
N       -0.403320        0.501192        0.056432
10
  Step 13: 13.0 fs
C       -1.776778       -0.100418       -0.007970
H       -2.373744        0.514622        0.799716
H       -2.166014        0.111539       -0.979002
H       -1.679113       -1.134620        0.378570
C        1.761456        0.061053        0.008685
H        2.201916       -0.430577        0.948505
H        2.313418       -0.453143       -0.776397
H        1.828953        1.001838        0.013375
N        0.415685       -0.442782       -0.086272
N       -0.411593        0.504613        0.057854
10
  Step 14: 14.0 fs
C       -1.779354       -0.103073       -0.004959
H       -2.389257        0.513958        0.798838
H       -2.116368        0.128255       -1.008141
H       -1.651632       -1.118563        0.420242
C        1.770116        0.054072        0.008991
H        2.226068       -0.428918        0.940175
H        2.353911       -0.453035       -0.753949
H        1.780917        1.005633        0.017939
N        0.412287       -0.439274       -0.092294
N       -0.419040        0.506654        0.058851
10
  Step 15: 15.0 fs
C       -1.782082       -0.104253        0.000620
H       -2.398090        0.503307        0.781408
H       -2.073456        0.138393       -1.040312
H       -1.630732       -1.102621        0.450989
C        1.779562        0.040507        0.010265
H        2.244120       -0.419078        0.926374
H        2.396415       -0.449784       -0.738833
H        1.738604        1.081608        0.022789
N        0.407500       -0.434865       -0.097935
N       -0.425281        0.507360        0.059531
10
  Step 16: 16.0 fs
C       -1.784908       -0.103870        0.007971
H       -2.401681        0.485031        0.748989
H       -2.037158        0.139014       -1.068174
H       -1.617472       -1.088802        0.469754
C        1.789497        0.025046        0.012262
H        2.255980       -0.402781        0.911849
H        2.438922       -0.442810       -0.732405
H        1.703217        1.178258        0.027421
N        0.401508       -0.429810       -0.103188
N       -0.430056        0.506873        0.060010
10
  Step 17: 17.0 fs
C       -1.787572       -0.102094        0.016041
H       -2.403925        0.463973        0.706588
H       -2.007597        0.128129       -1.085701
H       -1.612316       -1.079396        0.476536
C        1.799395        0.011021        0.014443
H        2.262932       -0.382906        0.903055
H        2.478608       -0.431334       -0.734433
H        1.677742        1.259942        0.031465
N        0.394630       -0.424370       -0.108056
N       -0.433239        0.505417        0.060406
10
  Step 18: 18.0 fs
C       -1.789557       -0.099412        0.023656
H       -2.411437        0.447422        0.662544
H       -1.985194        0.105017       -1.089545
H       -1.615235       -1.076425        0.472242
C        1.808802       -0.000012        0.016120
H        2.266979       -0.362608        0.906317
H        2.512165       -0.414678       -0.743135
H        1.664028        1.311627        0.034821
N        0.387285       -0.418829       -0.112557
N       -0.434836        0.503293        0.060849
10
  Step 19: 19.0 fs
C       -1.790214       -0.096522        0.029769
H       -2.432030        0.443313        0.626208
H       -1.970503        0.070217       -1.079493
H       -1.625890       -1.080998        0.458451
C        1.817454       -0.007402        0.016786
H        2.269368       -0.344066        0.924718
H        2.536556       -0.392695       -0.755777
H        1.662725        1.328191        0.037470
N        0.379936       -0.413523       -0.116723
N       -0.434980        0.500866        0.061484
10
  Step 20: 20.0 fs
C       -1.789213       -0.093955        0.033965
H       -2.469420        0.455423        0.602368
H       -1.964058        0.025367       -1.058613
H       -1.643752       -1.092821        0.437209
C        1.825295       -0.010922        0.016386
H        2.269484       -0.327816        0.955858
H        2.549718       -0.366043       -0.769459
H        1.673807        1.308642        0.039364
N        0.373043       -0.408851       -0.120607
N       -0.433906        0.498536        0.062464
10
  Step 21: 21.0 fs
C       -1.786948       -0.091771        0.036729
H       -2.518679        0.480035        0.588117
H       -1.966308       -0.026991       -1.033103
H       -1.668100       -1.110098        0.410925
C        1.832393       -0.010563        0.015321
H        2.265322       -0.313305        0.992691
H        2.551080       -0.336275       -0.781890
H        1.696777        1.254363        0.040407
N        0.367035       -0.405235       -0.124283
N       -0.431915        0.496703        0.063932
10
  Step 22: 22.0 fs
C       -1.784303       -0.089754        0.039049
H       -2.569140        0.508912        0.576717
H       -1.977554       -0.083797       -1.011183
H       -1.697894       -1.129848        0.382349
C        1.838794       -0.006533        0.014212
H        2.255051       -0.300084        1.026796
H        2.541764       -0.305825       -0.791946
H        1.730450        1.170132        0.040523
N        0.362275       -0.403070       -0.127837
N       -0.429337        0.495707        0.066009
10
  Step 23: 23.0 fs
C       -1.782177       -0.087724        0.041739
H       -2.610535        0.534318        0.562566
H       -1.997567       -0.141950       -0.999953
H       -1.731653       -1.148597        0.354564
C        1.844469        0.000386        0.013668
H        2.238034       -0.288414        1.051214
H        2.524487       -0.277909       -0.799952
H        1.772349        1.068555        0.039842
N        0.359045       -0.402638       -0.131358
N       -0.426489        0.495775        0.068767
10
  Step 24: 24.0 fs
C       -1.781291       -0.085668        0.044987
H       -2.636012        0.551264        0.542817
H       -2.024872       -0.198393       -1.001426
H       -1.767491       -1.163154        0.330801
C        1.849339        0.008006        0.014119
H        2.215047       -0.279359        1.061814
H        2.503074       -0.256255       -0.807509
H        1.818218        0.979326        0.039052
N        0.357530       -0.404021       -0.134905
N       -0.423637        0.496968        0.072220
10
  Step 25: 25.0 fs
C       -1.782175       -0.083735        0.048326
H       -2.642459        0.557614        0.517032
H       -2.056430       -0.249844       -1.011707
H       -1.803317       -1.171169        0.314097
C        1.853211        0.012435        0.015696
H        2.188043       -0.274546        1.057745
H        2.481498       -0.244456       -0.816753
H        1.863781        0.951657        0.039583
N        0.357832       -0.407045       -0.138497
N       -0.420968        0.499160        0.076316
10
  Step 26: 26.0 fs
C       -1.785121       -0.082198        0.050969
H       -2.630233        0.553840        0.486635
H       -2.088328       -0.292906       -1.024180
H       -1.837122       -1.171439        0.306952
C        1.855628        0.011809        0.018232
H        2.159823       -0.275950        1.041571
H        2.462685       -0.245016       -0.829098
H        1.908293        1.009033        0.042195
N        0.359931       -0.411304       -0.142106
N       -0.418585        0.502042        0.080951
10
  Step 27: 27.0 fs
C       -1.790053       -0.081420        0.052121
H       -2.603466        0.543267        0.454782
H       -2.116816       -0.324777       -1.033102
H       -1.867180       -1.163998        0.311132
C        1.856311        0.009368        0.021245
H        2.133806       -0.285637        1.019281
H        2.447667       -0.258448       -0.843981
H        1.950919        1.112301        0.045990
N        0.363662       -0.416246       -0.145663
N       -0.416502        0.505160        0.085973
10
  Step 28: 28.0 fs
C       -1.796425       -0.081850        0.051089
H       -2.570559        0.532528        0.426364
H       -2.138968       -0.343768       -1.035018
H       -1.892197       -1.150104        0.327680
C        1.855346        0.008643        0.023867
H        2.113556       -0.305221        0.999140
H        2.435522       -0.282952       -0.858402
H        1.988797        1.216297        0.050004
N        0.368751       -0.421260       -0.149068
N       -0.414673        0.507993        0.091206
10
  Step 29: 29.0 fs
C       -1.803288       -0.084002        0.047333
H       -2.543234        0.531074        0.407422
H       -2.152947       -0.349532       -1.028888
H       -1.911398       -1.131987        0.356998
C        1.852950        0.011194        0.025176
H        2.101807       -0.335258        0.988231
H        2.424406       -0.315223       -0.868180
H        2.019664        1.297056        0.053885
N        0.374875       -0.425744       -0.152211
N       -0.413018        0.510022        0.096468
10
  Step 30: 30.0 fs
C       -1.809752       -0.088159        0.040659
H       -2.531113        0.547092        0.402600
H       -2.158075       -0.343046       -1.015852
H       -1.924556       -1.112252        0.398857
C        1.849427        0.017262        0.024760
H        2.099337       -0.374259        0.988044
H        2.412732       -0.351557       -0.869871
H        2.042284        1.344294        0.057563
N        0.381695       -0.429164       -0.154985
N       -0.411446        0.510788        0.101583
10
  Step 31: 31.0 fs
C       -1.815600       -0.093928        0.031545
H       -2.534487        0.581021        0.411656
H       -2.154996       -0.326631       -0.999424
H       -1.931919       -1.092872        0.452172
C        1.845175        0.026408        0.022905
H        2.104756       -0.418183        0.993491
H        2.399708       -0.388507       -0.861754
H        2.055979        1.353868        0.060978
N        0.388881       -0.431093       -0.157293
N       -0.409866        0.509937        0.106396
10
  Step 32: 32.0 fs
C       -1.821234       -0.100273        0.021220
H       -2.544814        0.624734        0.429306
H       -2.145827       -0.303828       -0.985622
H       -1.934064       -1.074049        0.514432
C        1.840627        0.037897        0.020303
H        2.115381       -0.461393        0.996679
H        2.385442       -0.423254       -0.844091
H        2.060355        1.324713        0.063999
N        0.396135       -0.431239       -0.159064
N       -0.408209        0.507242        0.110782
10
  Step 33: 33.0 fs
C       -1.827064       -0.106093        0.011341
H       -2.552244        0.667622        0.448662
H       -2.133918       -0.278940       -0.982264
H       -1.931776       -1.053971        0.581250
C        1.836142        0.050868        0.017667
H        2.128376       -0.498416        0.991260
H        2.370829       -0.453793       -0.818920
H        2.055388        1.258696        0.066448
N        0.403201       -0.429456       -0.160255
N       -0.406450        0.502623        0.114655
10
  Step 34: 34.0 fs
C       -1.833205       -0.110624        0.003446
H       -2.550340        0.701559        0.464018
H       -2.122542       -0.255931       -0.995524
H       -1.926049       -1.029990        0.646740
C        1.831923        0.064195        0.015547
H        2.141317       -0.525067        0.974082
H        2.357312       -0.478948       -0.789635
H        2.042033        1.163475        0.068275
N        0.409877       -0.425757       -0.160861
N       -0.404614        0.496144        0.117976
10
  Step 35: 35.0 fs
C       -1.839604       -0.113475       -0.001621
H       -2.536455        0.722011        0.471574
H       -2.113210       -0.237402       -1.025169
H       -1.918072       -1.000270        0.704758
C        1.827869        0.075858        0.014230
H        2.152481       -0.538974        0.945376
H        2.346556       -0.498215       -0.760405
H        2.023872        1.060295        0.069995
N        0.416030       -0.420296       -0.160915
N       -0.402778        0.488002        0.120753
10
  Step 36: 36.0 fs
C       -1.846139       -0.114505       -0.003906
H       -2.510869        0.727711        0.469346
H       -2.105353       -0.224597       -1.063472
H       -1.909152       -0.964874        0.750370
C        1.823390        0.082064        0.013660
H        2.160941       -0.539736        0.908314
H        2.340091       -0.511466       -0.735578
H        2.009477        0.994209        0.073561
N        0.421600       -0.413360       -0.160494
N       -0.401067        0.478517        0.123036
10
  Step 37: 37.0 fs
C       -1.852578       -0.113735       -0.004064
H       -2.476254        0.720485        0.457102
H       -2.097597       -0.218047       -1.099377
H       -1.900609       -0.925934        0.780740
C        1.817729        0.079041        0.013469
H        2.166805       -0.529272        0.868899
H        2.339097       -0.518707       -0.719253
H        2.008666        1.013016        0.081697
N        0.426592       -0.405364       -0.159716
N       -0.399647        0.468113        0.124912
10
  Step 38: 38.0 fs
C       -1.858462       -0.111364       -0.003000
H       -2.437781        0.705792        0.436628
H       -2.088992       -0.218049       -1.123504
H       -1.893675       -0.887436        0.795578
C        1.811153        0.068807        0.013357
H        2.171578       -0.512206        0.836078
H        2.344347       -0.520159       -0.715052
H        2.018523        1.099350        0.093133
N        0.431028       -0.396859       -0.158742
N       -0.398725        0.457296        0.126501
10
  Step 39: 39.0 fs
C       -1.863093       -0.107861       -0.001713
H       -2.403132        0.693221        0.411989
H       -2.079323       -0.224745       -1.130111
H       -1.889431       -0.854577        0.797068
C        1.804513        0.056562        0.012987
H        2.178098       -0.494851        0.820300
H        2.355587       -0.515646       -0.724842
H        2.029044        1.199813        0.103887
N        0.434960       -0.388477       -0.157766
N       -0.398530        0.446623        0.127945
10
  Step 40: 40.0 fs
C       -1.865658       -0.103884       -0.001144
H       -2.381036        0.694809        0.388657
H       -2.069003       -0.238164       -1.117646
H       -1.888834       -0.832853        0.789360
C        1.798458        0.045579        0.011905
H        2.188849       -0.481879        0.828728
H        2.370882       -0.504011       -0.747335
H        2.034308        1.281244        0.111531
N        0.438487       -0.380851       -0.156987
N       -0.399299        0.436659        0.129406
10
  Step 41: 41.0 fs
C       -1.865603       -0.099850       -0.001793
H       -2.376965        0.718497        0.370347
H       -2.058942       -0.258309       -1.088827
H       -1.892741       -0.826569        0.777265
C        1.793639        0.037033        0.009980
H        2.203444       -0.473293        0.860006
H        2.386970       -0.483682       -0.778253
H        2.032130        1.330205        0.115232
N        0.441714       -0.374553       -0.156596
N       -0.401233        0.427916        0.131041
10
  Step 42: 42.0 fs
C       -1.862954       -0.095474       -0.003294
H       -2.389241        0.761125        0.356142
H       -2.050493       -0.285335       -1.050835
H       -1.901872       -0.836989        0.764284
C        1.790830        0.031053        0.007587
H        2.218351       -0.465254        0.904547
H        2.400336       -0.453734       -0.811825
H        2.021934        1.342432        0.114879
N        0.444697       -0.370051       -0.156755
N       -0.404447        0.420801        0.132994
10
  Step 43: 43.0 fs
C       -1.858188       -0.090021       -0.004489
H       -2.410847        0.810585        0.342036
H       -2.045375       -0.319700       -1.014695
H       -1.916604       -0.861287        0.751289
C        1.790696        0.027529        0.005316
H        2.229284       -0.453674        0.950071
H        2.408251       -0.414564       -0.842474
H        2.003827        1.317632        0.110676
N        0.447390       -0.367678       -0.157588
N       -0.408918        0.415571        0.135378
10
  Step 44: 44.0 fs
C       -1.851894       -0.082941       -0.004075
H       -2.434221        0.853819        0.324325
H       -2.045101       -0.361864       -0.991464
H       -1.936671       -0.893265        0.737000
C        1.793576        0.026426        0.003682
H        2.233322       -0.436400        0.986390
H        2.409394       -0.368088       -0.866069
H        1.978387        1.258123        0.103086
N        0.449636       -0.367618       -0.159166
N       -0.414461        0.412308        0.138262
10
  Step 45: 45.0 fs
C       -1.844670       -0.074216       -0.001419
H       -2.453906        0.881666        0.301144
H       -2.049796       -0.410863       -0.985690
H       -1.961036       -0.925465        0.719750
C        1.799375        0.027653        0.003031
H        2.229476       -0.413433        1.007070
H        2.404138       -0.317594       -0.880697
H        1.946876        1.170407        0.093020
N        0.451169       -0.369900       -0.161506
N       -0.420724        0.410929        0.141667
10
  Step 46: 46.0 fs
C       -1.837166       -0.064374        0.003087
H       -2.466823        0.889497        0.272313
H       -2.057469       -0.462832       -0.992525
H       -1.988081       -0.951236        0.698872
C        1.807537        0.030545        0.003525
H        2.218542       -0.386463        1.009469
H        2.394544       -0.267350       -0.886956
H        1.911708        1.070305        0.082273
N        0.451668       -0.374411       -0.164568
N       -0.427212        0.411206        0.145565
10
  Step 47: 47.0 fs
C       -1.830008       -0.054299        0.008442
H       -2.472074        0.876789        0.238880
H       -2.064819       -0.511747       -1.002426
H       -2.015939       -0.965778        0.675034
C        1.817075        0.033020        0.005071
H        2.202887       -0.358460        0.994714
H        2.384039       -0.221931       -0.887749
H        1.876595        0.991640        0.074104
N        0.450817       -0.380910       -0.168264
N       -0.433347        0.412810        0.149887
10
  Step 48: 48.0 fs
C       -1.823640       -0.044983        0.013600
H       -2.471000        0.846948        0.202782
H       -2.068650       -0.551786       -1.007385
H       -2.042834       -0.966615        0.650123
C        1.826851        0.031926        0.007265
H        2.186418       -0.333478        0.968180
H        2.376696       -0.185234       -0.887415
H        1.844160        0.980764        0.072505
N        0.448362       -0.389059       -0.172461
N       -0.438545        0.415347        0.154533
10
  Step 49: 49.0 fs
C       -1.818179       -0.037426        0.017692
H       -2.467699        0.807699        0.166576
H       -2.066571       -0.578833       -1.003059
H       -2.067337       -0.953728        0.627030
C        1.835966        0.027177        0.009526
H        2.174421       -0.316510        0.940000
H        2.376034       -0.159555       -0.890053
H        1.813024        1.046214        0.078355
N        0.444143       -0.398461       -0.176999
N       -0.442290        0.418408        0.159379
10
  Step 50: 50.0 fs
C       -1.813372       -0.032546        0.020072
H       -2.468966        0.770498        0.132928
H       -2.057115       -0.590937       -0.988617
H       -2.088582       -0.929579        0.609500
C        1.843549        0.022688        0.011118
H        2.172627       -0.312496        0.923312
H        2.383680       -0.145163       -0.897480
H        1.782676        1.145867        0.088836
N        0.438130       -0.408678       -0.181696
N       -0.444192        0.421604        0.164297
10
  Step 51: 51.0 fs
C       -1.808776       -0.030917        0.020336
H       -2.481937        0.746974        0.103722
H       -2.039646       -0.588274       -0.965989
H       -2.106423       -0.898841        0.601954
C        1.848883        0.021611        0.011342
H        2.184431       -0.323632        0.926852
H        2.398667       -0.140554       -0.908084
H        1.755253        1.241089        0.101312
N        0.430450       -0.419238       -0.186358
N       -0.444017        0.424597        0.169167
10
  Step 52: 52.0 fs
C       -1.804213       -0.032289        0.018414
H       -2.508735        0.742327        0.079354
H       -2.014382       -0.573245       -0.939640
H       -2.121403       -0.867370        0.608891
C        1.851827        0.024968        0.010202
H        2.208242       -0.347193        0.947262
H        2.418129       -0.143385       -0.917887
H        1.732960        1.312108        0.114250
N        0.421358       -0.429686       -0.190798
N       -0.441680        0.427120        0.173894
10
  Step 53: 53.0 fs
C       -1.800039       -0.035533        0.014678
H       -2.543654        0.752563        0.059129
H       -1.982544       -0.550687       -0.916731
H       -2.134211       -0.839845        0.633343
C        1.852733        0.032513        0.008386
H        2.238518       -0.376847        0.972053
H        2.438565       -0.151236       -0.922578
H        1.717202        1.350384        0.126700
N        0.411179       -0.439629       -0.194859
N       -0.437228        0.428982        0.178415
10
  Step 54: 54.0 fs
C       -1.796900       -0.039263        0.009989
H       -2.577010        0.769129        0.042155
H       -1.946331       -0.527485       -0.906463
H       -2.144725       -0.817343        0.674816
C        1.852099        0.043564        0.006679
H        2.268988       -0.405906        0.988631
H        2.456836       -0.161936       -0.919062
H        1.708772        1.352523        0.137933
N        0.400283       -0.448756       -0.198425
N       -0.430830        0.430063        0.182705
10
  Step 55: 55.0 fs
C       -1.795390       -0.042475        0.005474
H       -2.600319        0.784335        0.027680
H       -1.908242       -0.510558       -0.916749
H       -2.151581       -0.797142        0.728326
C        1.850350        0.057371        0.005632
H        2.294678       -0.429274        0.989055
H        2.470666       -0.173622       -0.906117
H        1.708027        1.318042        0.147341
N        0.389066       -0.456854       -0.201430
N       -0.422770        0.430319        0.186767
10
  Step 56: 56.0 fs
C       -1.795911       -0.044796        0.001919
H       -2.608373        0.793313        0.015081
H       -1.870117       -0.503408       -0.948282
H       -2.152807       -0.775088        0.785807
C        1.847781        0.073099        0.005541
H        2.312318       -0.443824        0.970346
H        2.478856       -0.184761       -0.884550
H        1.714818        1.249969        0.154551
N        0.377945       -0.463794       -0.203855
N       -0.413426        0.429771        0.190631
10
  Step 57: 57.0 fs
C       -1.798574       -0.046380       -0.000653
H       -2.599321        0.794076        0.003786
H       -1.833190       -0.504809       -0.992224
H       -2.146929       -0.748177        0.838967