10
  Step 0: 0.0 fs
C       -1.803702       -0.067741        0.000067
H       -2.311478        0.330648        0.889281
H       -2.311376        0.329969       -0.889467
H       -1.816433       -1.165813        0.000630
C        1.803674        0.067714        0.000028
H        2.310895       -0.329687        0.890052
H        2.312181       -0.330887       -0.888641
H        1.816239        1.165791       -0.000421
N        0.410950       -0.460073       -0.000158
N       -0.410928        0.460091       -0.000130
10
  Step 1: 1.0 fs
C       -1.799005       -0.061867        0.005675
H       -2.263035        0.325458        0.906304
H       -2.300862        0.331057       -0.966294
H       -1.772362       -1.191624       -0.037030
C        1.802359        0.063101       -0.010760
H        2.260394       -0.338057        0.898085
H        2.292694       -0.308820       -0.805563
H        1.837862        1.201235       -0.025299
N        0.415727       -0.463092        0.001973
N       -0.422539        0.460643        0.004427
10
  Step 2: 2.0 fs
C       -1.794482       -0.056694        0.009734
H       -2.220034        0.321130        0.924634
H       -2.285401        0.328137       -1.027029
H       -1.730611       -1.208520       -0.072511
C        1.799544        0.060563       -0.018967
H        2.212379       -0.345277        0.907865
H        2.291341       -0.302055       -0.753931
H        1.858240        1.225474       -0.048910
N        0.419901       -0.465561        0.003920
N       -0.433305        0.460879        0.008921
10
  Step 3: 3.0 fs
C       -1.790105       -0.052832        0.011328
H       -2.186664        0.317929        0.944825
H       -2.263677        0.320116       -1.062454
H       -1.693598       -1.211077       -0.103531
C        1.793959        0.061555       -0.022564
H        2.168899       -0.350029        0.920190
H        2.323945       -0.323391       -0.757249
H        1.876117        1.232245       -0.070224
N        0.422963       -0.467056        0.005494
N       -0.442465        0.460595        0.013279
10
  Step 4: 4.0 fs
C       -1.785854       -0.050606        0.010169
H       -2.165140        0.315099        0.965286
H       -2.236518        0.307595       -1.068575
H       -1.663426       -1.197864       -0.128130
C        1.786481        0.065582       -0.022699
H        2.131664       -0.351111        0.934762
H        2.381259       -0.366740       -0.800003
H        1.890377        1.219993       -0.088525
N        0.424507       -0.467303        0.006530
N       -0.449391        0.459716        0.017436
10
  Step 5: 5.0 fs
C       -1.781765       -0.050047        0.006511
H       -2.155852        0.311076        0.982365
H       -2.206179        0.292311       -1.045613
H       -1.641603       -1.171184       -0.144916
C        1.779081        0.071018       -0.021744
H        2.102098       -0.347569        0.950132
H        2.440998       -0.416328       -0.850814
H        1.900261        1.191369       -0.103562
N        0.424257       -0.466177        0.006900
N       -0.453612        0.458295        0.021343
10
  Step 6: 6.0 fs
C       -1.777866       -0.050943        0.001074
H       -2.157999        0.304176        0.991784
H       -2.176389        0.277234       -0.998441
H       -1.628804       -1.137070       -0.153267
C        1.773086        0.076271       -0.021054
H        2.081226       -0.338743        0.964172
H        2.487784       -0.460959       -0.889524
H        1.905708        1.153533       -0.115783
N        0.422109       -0.463689        0.006516
N       -0.454836        0.456498        0.024979
10
  Step 7: 7.0 fs
C       -1.774055       -0.052935       -0.004890
H       -2.170152        0.293176        0.990169
H       -2.153015        0.267174       -0.938588
H       -1.624694       -1.105058       -0.153468
C        1.769040        0.079869       -0.021028
H        2.069574       -0.324352        0.974885
H        2.514441       -0.494972       -0.907214
H        1.907538        1.118116       -0.126429
N        0.418139       -0.459975        0.005328
N       -0.452980        0.454580        0.028347
10
  Step 8: 8.0 fs
C       -1.769987       -0.055695       -0.009567
H       -2.190648        0.277677        0.976158
H       -2.144480        0.269266       -0.885559
H       -1.628064       -1.086543       -0.146766
C        1.767049        0.080473       -0.021643
H        2.067177       -0.304571        0.981092
H        2.518263       -0.515770       -0.900762
H        1.907207        1.098628       -0.137331
N        0.412608       -0.455293        0.003324
N       -0.448205        0.452852        0.031470
10
  Step 9: 9.0 fs
C       -1.765194       -0.059134       -0.011228
H       -2.217892        0.258264        0.951072
H       -2.159072        0.290729       -0.859917
H       -1.637549       -1.090121       -0.135031
C        1.767066        0.077392       -0.022813
H        2.073623       -0.280052        0.982795
H        2.498845       -0.522410       -0.869966
H        1.905711        1.103072       -0.149961
N        0.405946       -0.450016        0.000526
N       -0.440931        0.451665        0.034381
10
  Step 10: 10.0 fs
C       -1.759655       -0.063260       -0.009776
H       -2.250649        0.236490        0.919095
H       -2.197199        0.331932       -0.865577
H       -1.652449       -1.116205       -0.120190
C        1.769009        0.071078       -0.024512
H        2.088106       -0.251799        0.981229
H        2.457811       -0.515506       -0.817119
H        1.902606        1.127772       -0.164390
N        0.398732       -0.444630       -0.003018
N       -0.431822        0.451395        0.037126
10
  Step 11: 11.0 fs
C       -1.754061       -0.067998       -0.006949
H       -2.288218        0.214606        0.886392
H       -2.248683        0.383612       -0.886843
H       -1.672567       -1.156396       -0.103956
C        1.772592        0.062936       -0.026600
H        2.109420       -0.220913        0.978509
H        2.400224       -0.498396       -0.748586
H        1.896600        1.160497       -0.179437
N        0.391675       -0.439695       -0.007233
N       -0.421729        0.452434        0.039771
10
  Step 12: 12.0 fs
C       -1.749309       -0.073325       -0.004651
H       -2.329906        0.194844        0.858792
H       -2.300614        0.433926       -0.905908
H       -1.697322       -1.198469       -0.087934
C        1.776927        0.054903       -0.028317
H        2.135917       -0.188306        0.976861
H        2.338103       -0.480416       -0.678791
H        1.886842        1.188367       -0.193795
N        0.385534       -0.435790       -0.012025
N       -0.411591        0.455159        0.042400
10
  Step 13: 13.0 fs
C       -1.746159       -0.079249       -0.003932
H       -2.373891        0.178624        0.839385
H       -2.343421        0.474134       -0.912468
H       -1.725283       -1.231839       -0.073689
C        1.780240        0.049383       -0.027850
H        2.165570       -0.154638        0.977685
H        2.293317       -0.480655       -0.633531
H        1.873463        1.202295       -0.206852
N        0.381009       -0.433407       -0.017282
N       -0.402295        0.459850        0.045109
10
  Step 14: 14.0 fs
C       -1.745254       -0.085673       -0.005022
H       -2.416498        0.166215        0.827852
H       -2.371503        0.499177       -0.902775
H       -1.754423       -1.249686       -0.062663
C        1.780937        0.048379       -0.023452
H        2.196194       -0.120562        0.981060
H        2.285466       -0.518177       -0.635881
H        1.857318        1.197816       -0.218805
N        0.378595       -0.432859       -0.022869
N       -0.394546        0.466611        0.047987
10
  Step 15: 15.0 fs
C       -1.747114       -0.092320       -0.007673
H       -2.452919        0.157134        0.821954
H       -2.382225        0.506684       -0.876997
H       -1.782563       -1.249306       -0.056124
C        1.779703        0.051293       -0.015956
H        2.225733       -0.087024        0.986029
H        2.307400       -0.585198       -0.676623
H        1.839569        1.175028       -0.230477
N        0.378474       -0.434195       -0.028616
N       -0.388784        0.475281        0.051096
10
  Step 16: 16.0 fs
C       -1.752027       -0.098755       -0.011435
H       -2.478732        0.150665        0.819484
H       -2.375287        0.496372       -0.837917
H       -1.807704       -1.231904       -0.055087
C        1.778396        0.055714       -0.007614
H        2.252408       -0.055286        0.991016
H        2.338113       -0.656443       -0.728232
H        1.821473        1.138634       -0.243329
N        0.380510       -0.437189       -0.034336
N       -0.385150        0.485418        0.054463
10
  Step 17: 17.0 fs
C       -1.759910       -0.104429       -0.015721
H       -2.491012        0.146182        0.819298
H       -2.353064        0.470471       -0.791182
H       -1.828257       -1.202809       -0.060268
C        1.778213        0.059471        0.000122
H        2.274764       -0.026675        0.994325
H        2.363906       -0.713605       -0.771342
H        1.804357        1.097872       -0.259687
N        0.384322       -0.441377       -0.039839
N       -0.383521        0.496328        0.058075
10
  Step 18: 18.0 fs
C       -1.770156       -0.108808       -0.019693
H       -2.488748        0.143246        0.821452
H       -2.321856        0.435085       -0.746754
H       -1.843206       -1.171448       -0.072031
C        1.779645        0.060953        0.006704
H        2.291781       -0.002265        0.994806
H        2.379031       -0.748107       -0.796738
H        1.789435        1.064992       -0.282688
N        0.389374       -0.446146       -0.044937
N       -0.383594        0.507172        0.061880
10
  Step 19: 19.0 fs
C       -1.781553       -0.111629       -0.022107
H       -2.472791        0.141616        0.826839
H       -2.293067        0.401620       -0.720340
H       -1.852101       -1.149922       -0.090395
C        1.782830        0.059184        0.011941
H        2.303006        0.017373        0.992272
H        2.381753       -0.756924       -0.800690
H        1.777581        1.049856       -0.314932
N        0.395068       -0.450848       -0.049449
N       -0.384983        0.517094        0.065794
10
  Step 20: 20.0 fs
C       -1.792620       -0.113087       -0.021613
H       -2.445582        0.141252        0.836640
H       -2.279895        0.383688       -0.729301
H       -1.854781       -1.147835       -0.114969
C        1.787734        0.054152        0.015550
H        2.308599        0.032228        0.987675
H        2.372230       -0.740002       -0.782210
H        1.769374        1.053245       -0.356082
N        0.400808       -0.454870       -0.053216
N       -0.387282        0.525312        0.069717
10
  Step 21: 21.0 fs
C       -1.802578       -0.113411       -0.018004
H       -2.410847        0.142330        0.851980
H       -2.286522        0.385846       -0.777853
H       -1.851122       -1.166137       -0.144598
C        1.794162        0.046771        0.017047
H        2.309247        0.042833        0.982939
H        2.352141       -0.699783       -0.742540
H        1.765342        1.066786       -0.401906
N        0.406065       -0.457699       -0.056111
N       -0.390112        0.531194        0.073543
10
  Step 22: 22.0 fs
C       -1.811669       -0.112567       -0.012841
H       -2.373075        0.145153        0.873705
H       -2.304518        0.399318       -0.849831
H       -1.841233       -1.196317       -0.176967
C        1.801684        0.038444        0.016081
H        2.305876        0.050176        0.980443
H        2.325664       -0.642536       -0.686570
H        1.766009        1.079520       -0.446198
N        0.410405       -0.458939       -0.058048
N       -0.393143        0.534280        0.077171
10
  Step 23: 23.0 fs
C       -1.820303       -0.110662       -0.008188
H       -2.336554        0.149829        0.901800
H       -2.323267        0.412715       -0.922976
H       -1.825901       -1.225955       -0.208810
C        1.809416        0.030920        0.013057
H        2.299220        0.055519        0.982136
H        2.302279       -0.581956       -0.626658
H        1.771657        1.083475       -0.483380
N        0.413520       -0.458342       -0.059001
N       -0.396114        0.534301        0.080506
10
  Step 24: 24.0 fs
C       -1.828597       -0.107998       -0.005448
H       -2.304201        0.155826        0.934397
H       -2.336403        0.419171       -0.980963
H       -1.806616       -1.244700       -0.236781
C        1.815776        0.026502        0.009611
H        2.289509        0.060100        0.988687
H        2.299813       -0.542318       -0.586132
H        1.782226        1.074809       -0.509665
N        0.415247       -0.455833       -0.059013
N       -0.398840        0.531187        0.083466
10
  Step 25: 25.0 fs
C       -1.836477       -0.104859       -0.005183
H       -2.277221        0.161872        0.967387
H       -2.341355        0.416087       -1.014615
H       -1.785229       -1.246451       -0.258128
C        1.819214        0.027077        0.007577
H        2.276569        0.064829        0.999315
H        2.335701       -0.546173       -0.586515
H        1.797288        1.053475       -0.523341
N        0.415568       -0.451518       -0.058185
N       -0.401214        0.525073        0.085987
10
  Step 26: 26.0 fs
C       -1.843793       -0.101377       -0.007359
H       -2.255731        0.166338        0.995427
H       -2.337721        0.403418       -1.019814
H       -1.763584       -1.229578       -0.271061
C        1.820220        0.031861        0.006525
H        2.260217        0.070160        1.012332
H        2.403205       -0.587102       -0.619022
H        1.816108        1.022896       -0.524872
N        0.414572       -0.445680       -0.056659
N       -0.403214        0.516289        0.088028
10
  Step 27: 27.0 fs
C       -1.850341       -0.097540       -0.011579
H       -2.239581        0.167790        1.013608
H       -2.326564        0.382881       -0.996316
H       -1.743254       -1.196613       -0.274866
C        1.820685        0.038331        0.004852
H        2.240515        0.076075        1.025549
H        2.478810       -0.640947       -0.657655
H        1.837901        0.989958       -0.517266
N        0.412456       -0.438762       -0.054605
N       -0.404907        0.505358        0.089580
10
  Step 28: 28.0 fs
C       -1.855828       -0.093221       -0.017130
H       -2.228802        0.165350        1.018750
H       -2.310647        0.358140       -0.948289
H       -1.725288       -1.154407       -0.270071
C        1.821975        0.044267        0.001901
H        2.217862        0.082199        1.036652
H        2.544587       -0.690064       -0.684885
H        1.862138        0.964555       -0.506121
N        0.409531       -0.431322       -0.052217
N       -0.406449        0.492971        0.090666
10
  Step 29: 29.0 fs
C       -1.859786       -0.088286       -0.022848
H       -2.223738        0.158842        1.010103
H       -2.295513        0.335814       -0.886555
H       -1.709980       -1.113915       -0.258504
C        1.824648        0.048132       -0.002102
H        2.193015        0.088046        1.043916
H        2.591325       -0.725685       -0.693221
H        1.888703        0.957031       -0.498038
N        0.406222       -0.424011       -0.049715
N       -0.408082        0.479963        0.091338
10
  Step 30: 30.0 fs
C       -1.861449       -0.082846       -0.026993
H       -2.225066        0.148866        0.989801
H       -2.290702        0.326337       -0.830782
H       -1.696934       -1.088042       -0.242965
C        1.828820        0.049230       -0.006816
H        2.167066        0.093213        1.046720
H        2.614822       -0.743926       -0.680396
H        1.917487        0.972190       -0.496823
N        0.403034       -0.417522       -0.047331
N       -0.410130        0.467258        0.091663
10
  Step 31: 31.0 fs
C       -1.859881       -0.077465       -0.027869
H       -2.233832        0.136779        0.963118
H       -2.307145        0.340865       -0.803383
H       -1.685983       -1.085759       -0.226180
C        1.834449        0.047843       -0.012245
H        2.141332        0.097516        1.045672
H        2.613461       -0.743378       -0.646650
H        1.947617        1.005144       -0.500963
N        0.400494       -0.412526       -0.045297
N       -0.412951        0.455777        0.091718
10
  Step 32: 32.0 fs
C       -1.854763       -0.072729       -0.025546
H       -2.251444        0.124518        0.938009
H       -2.346679        0.381009       -0.809716
H       -1.678353       -1.106513       -0.209821
C        1.841414        0.044925       -0.018608
H        2.117130        0.101093        1.042343
H        2.587712       -0.724638       -0.594143
H        1.977271        1.044575       -0.505604
N        0.399067       -0.409582       -0.043817
N       -0.416856        0.446316        0.091581
10
  Step 33: 33.0 fs
C       -1.846835       -0.068806       -0.022027
H       -2.279037        0.113991        0.922310
H       -2.397591        0.435194       -0.833214
H       -1.676469       -1.141032       -0.194595
C        1.849365        0.041655       -0.025911
H        2.095502        0.104398        1.038631
H        2.541375       -0.691519       -0.527808
H        2.004409        1.079274       -0.506217
N        0.399076       -0.409045       -0.043049
N       -0.422020        0.439442        0.091318
10
  Step 34: 34.0 fs
C       -1.837271       -0.065753       -0.019176
H       -2.315940        0.106244        0.919169
H       -2.445170        0.489241       -0.854873
H       -1.682492       -1.177232       -0.180876
C        1.857372        0.039500       -0.033557
H        2.077049        0.108143        1.036145
H        2.485198       -0.654930       -0.457708
H        2.027428        1.101323       -0.500310
N        0.400633       -0.410987       -0.043090
N       -0.428407        0.435396        0.090976
10
  Step 35: 35.0 fs
C       -1.827251       -0.063665       -0.017632
H       -2.358310        0.101139        0.925074
H       -2.479265        0.533397       -0.863681
H       -1.697284       -1.205224       -0.169149
C        1.863565        0.040618       -0.040155
H        2.061910        0.113063        1.035696
H        2.440911       -0.637955       -0.400686
H        2.045478        1.106526       -0.487581
N        0.403608       -0.415181       -0.043969
N       -0.435732        0.434095        0.090563
10
  Step 36: 36.0 fs
C       -1.817894       -0.062612       -0.017157
H       -2.399991        0.097873        0.932846
H       -2.494496        0.562393       -0.855375
H       -1.720368       -1.218753       -0.160032
C        1.865910        0.047185       -0.044213
H        2.049976        0.119679        1.037322
H        2.432171       -0.667391       -0.372428
H        2.058465        1.094250       -0.469617
N        0.407648       -0.421151       -0.045648
N       -0.443490        0.435182        0.090057
10
  Step 37: 37.0 fs
C       -1.810164       -0.062577       -0.017247
H       -2.434768        0.095714        0.936099
H       -2.488765        0.573982       -0.829680
H       -1.750308       -1.215252       -0.154239
C        1.864604        0.058458       -0.045636
H        2.041147        0.128082        1.040684
H        2.456196       -0.739513       -0.370160
H        2.067031        1.068208       -0.449829
N        0.412232       -0.428259       -0.048039
N       -0.451044        0.438127        0.089417
10
  Step 38: 38.0 fs
C       -1.804763       -0.063434       -0.017420
H       -2.457930        0.094256        0.931328
H       -2.462486        0.568157       -0.789004
H       -1.785078       -1.195589       -0.152543
C        1.861487        0.070956       -0.045128
H        2.035435        0.137833        1.045107
H        2.490196       -0.822904       -0.379561
H        2.072771        1.037433       -0.433596
N        0.416789       -0.435805       -0.051027
N       -0.457730        0.442321        0.088602
10
  Step 39: 39.0 fs
C       -1.801987       -0.064963       -0.017204
H       -2.466947        0.093426        0.918235
H       -2.419011        0.547670       -0.738818
H       -1.822367       -1.164352       -0.155797
C        1.857782        0.081370       -0.042920
H        2.032912        0.148152        1.049585
H        2.517535       -0.891958       -0.390353
H        2.078313        1.015029       -0.427663
N        0.420803       -0.443119       -0.054494
N       -0.462932        0.447146        0.087583
10
  Step 40: 40.0 fs
C       -1.801550       -0.066970       -0.015961
H       -2.461555        0.093437        0.899321
H       -2.366069        0.519665       -0.689201
H       -1.859887       -1.129905       -0.164973
C        1.853937        0.087659       -0.038918
H        2.033586        0.158363        1.053154
H        2.530934       -0.933877       -0.397585
H        2.086123        1.011868       -0.437519
N        0.423863       -0.449609       -0.058325
N       -0.466144        0.452009        0.086345
10
  Step 41: 41.0 fs
C       -1.802444       -0.069530       -0.012740
H       -2.443794        0.094790        0.879469
H       -2.316896        0.497432       -0.656280
H       -1.895767       -1.103158       -0.181116
C        1.850200        0.089343       -0.033279
H        2.037337        0.168193        1.055287
H        2.528118       -0.943713       -0.399094
H        2.096232        1.027965       -0.463548
N        0.425663       -0.454800       -0.062411
N       -0.467007        0.456369        0.084889
10
  Step 42: 42.0 fs
C       -1.803306       -0.073035       -0.006638
H       -2.417824        0.098334        0.865233
H       -2.285776        0.496534       -0.657453
H       -1.928701       -1.093353       -0.204923
C        1.846901        0.087190       -0.026611
H        2.043894        0.177847        1.056049
H        2.509133       -0.920688       -0.394053
H        2.105770        1.052433       -0.500356
N        0.426012       -0.458343       -0.066643
N       -0.465323        0.459751        0.083232
10
  Step 43: 43.0 fs
C       -1.803534       -0.077496        0.001912
H       -2.389336        0.105238        0.863739
H       -2.275894        0.520931       -0.695902
H       -1.957526       -1.102719       -0.235819
C        1.844317        0.082432       -0.019687
H        2.052812        0.187902        1.055995
H        2.475839       -0.867336       -0.382695
H        2.111022        1.072047       -0.540202
N        0.424841       -0.460027       -0.070923
N       -0.461053        0.461780        0.081407
10
  Step 44: 44.0 fs
C       -1.803625       -0.082261        0.010881
H       -2.363582        0.116498        0.879958
H       -2.277718        0.558473       -0.755450
H       -1.980736       -1.125090       -0.271194
C        1.842416        0.076383       -0.013089
H        2.063447        0.199110        1.055872
H        2.433031       -0.791151       -0.367010
H        2.109236        1.077584       -0.576315
N        0.422215       -0.459785       -0.075172
N       -0.454329        0.462213        0.079459
10
  Step 45: 45.0 fs
C       -1.804335       -0.086736        0.018260
H       -2.342822        0.132003        0.913316
H       -2.280974        0.594327       -0.815882
H       -1.996662       -1.150064       -0.306804
C        1.840555        0.070735       -0.006901
H        2.074990        0.212126        1.056213
H        2.391440       -0.708924       -0.352627
H        2.098959        1.064901       -0.604006
N        0.418344       -0.457712       -0.079333
N       -0.445466        0.460973        0.077440
10
  Step 46: 46.0 fs
C       -1.806237       -0.090579        0.023087
H       -2.325604        0.149949        0.956839
H       -2.280149        0.619156       -0.863147
H       -2.004129       -1.168376       -0.338132
C        1.837252        0.067924       -0.000500
H        2.086573        0.227208        1.057043
H        2.370448       -0.649955       -0.350880
H        2.079805        1.034239       -0.620771
N        0.413580       -0.454080       -0.083376
N       -0.434949        0.458158        0.075407
10
  Step 47: 47.0 fs
C       -1.809648       -0.093526        0.025270
H       -2.308757        0.167428        1.000392
H       -2.273331        0.628676       -0.889518
H       -2.002754       -1.174222       -0.361466
C        1.831060        0.069847        0.006940
H        2.097432        0.244071        1.057976
H        2.387895       -0.640115       -0.372750
H        2.052241        0.989759       -0.626384
N        0.408410       -0.449349       -0.087300
N       -0.423405        0.454060        0.073439
10
  Step 48: 48.0 fs
C       -1.814589       -0.095289        0.025089
H       -2.289763        0.181554        1.034887
H       -2.260573        0.621755       -0.891525
H       -1.992978       -1.165681       -0.374418
C        1.822546        0.075251        0.015113
H        2.107004        0.262088        1.058719
H        2.436781       -0.671198       -0.412843
H        2.017673        0.939718       -0.623574
N        0.403410       -0.444162       -0.091128
N       -0.411585        0.449161        0.071643
10
  Step 49: 49.0 fs
C       -1.820807       -0.095551        0.022950
H       -2.267577        0.190116        1.054233
H       -2.243185        0.599466       -0.868813
H       -1.975935       -1.144544       -0.376114
C        1.813534        0.081008        0.023056
H        2.114893        0.280489        1.059122
H        2.494268       -0.715734       -0.454562
H        1.978652        0.895880       -0.618638
N        0.399215       -0.439304       -0.094897
N       -0.400310        0.444096        0.070152
10
  Step 50: 50.0 fs
C       -1.827783       -0.094012        0.019389
H       -2.242672        0.191886        1.055978
H       -2.223872        0.565437       -0.824585
H       -1.953324       -1.116402       -0.367353
C        1.805314        0.084598        0.030369
H        2.120771        0.298544        1.059011
H        2.543341       -0.754126       -0.485568
H        1.938455        0.870823       -0.620289
N        0.396448       -0.435622       -0.098655
N       -0.390394        0.439580        0.069116
10
  Step 51: 51.0 fs
C       -1.834703       -0.090565        0.015250
H       -2.216735        0.186677        1.041294
H       -2.207633        0.527429       -0.767667
H       -1.927142       -1.090233       -0.350555
C        1.798554        0.084823        0.036941
H        2.124317        0.315720        1.058266
H        2.575533       -0.776934       -0.500011
H        1.899513        0.871444       -0.634259
N        0.395622       -0.433888       -0.102440
N       -0.382535        0.436285        0.068666
10
  Step 52: 52.0 fs
C       -1.840390       -0.085635        0.011835
H       -2.192526        0.175451        1.015400
H       -2.202910        0.499222       -0.715150
H       -1.899239       -1.076391       -0.329178
C        1.793665        0.081827        0.042270
H        2.125221        0.331760        1.056942
H        2.587230       -0.780189       -0.495851
H        1.862714        0.893829       -0.657841
N        0.397015       -0.434655       -0.106260
N       -0.377215        0.434705        0.068885
10
  Step 53: 53.0 fs
C       -1.843462       -0.080338        0.010449
H       -2.173685        0.160331        0.987711
H       -2.220195        0.497514       -0.688647
H       -1.870910       -1.081596       -0.306154
C        1.790894        0.076555        0.045511
H        2.123141        0.346630        1.055208
H        2.577385       -0.762741       -0.473084
H        1.828512        0.926780       -0.682065
N        0.400595       -0.438127       -0.110079
N       -0.374620        0.435042        0.069774
10
  Step 54: 54.0 fs
C       -1.843066       -0.075592        0.010895
H       -2.164248        0.144278        0.970609
H       -2.263443        0.527485       -0.696344
H       -1.843085       -1.104551       -0.282741
C        1.790250        0.070113        0.046001
H        2.117635        0.360414        1.053172
H        2.547220       -0.725836       -0.433448
H        1.797842        0.959084       -0.698081
N        0.406016       -0.444118       -0.113813
N       -0.374624        0.437162        0.071252
10
  Step 55: 55.0 fs
C       -1.839511       -0.071264        0.011203
H       -2.167094        0.129807        0.973929
H       -2.323791        0.575037       -0.723976
H       -1.816834       -1.136848       -0.258926
C        1.791381        0.063611        0.043622
H        2.108154        0.373223        1.050793
H        2.501723       -0.674569       -0.381297
H        1.772053        0.982944       -0.700413
N        0.412684       -0.452116       -0.117335
N       -0.376836        0.440637        0.073171
10
  Step 56: 56.0 fs
C       -1.833774       -0.066848        0.009805
H       -2.181792        0.117530        0.997576
H       -2.387557        0.621406       -0.752192
H       -1.793463       -1.167916       -0.234640
C        1.793257        0.058485        0.038981
H        2.094143        0.385114        1.047958
H        2.453504       -0.621735       -0.325653
H        1.752544        0.994193       -0.687167
N        0.419862       -0.461408       -0.120496
N       -0.380692        0.444850        0.075335
10
  Step 57: 57.0 fs
C       -1.826912       -0.062051        0.006634
H       -2.204294        0.106388        1.031309
H       -2.444080        0.654204       -0.768785
H       -1.774191       -1.189252       -0.210441