10
  Step 0: 0.0 fs
C       -1.803707       -0.067742        0.000067
H       -2.311477        0.330677        0.889268
H       -2.311379        0.329981       -0.889457
H       -1.816446       -1.165812        0.000660
C        1.803673        0.067713        0.000032
H        2.310885       -0.329665        0.890052
H        2.312192       -0.330891       -0.888616
H        1.816242        1.165793       -0.000434
N        0.410954       -0.460072       -0.000169
N       -0.410928        0.460087       -0.000126
10
  Step 1: 1.0 fs
C       -1.796403       -0.068243        0.002228
H       -2.345958        0.366733        0.899738
H       -2.387085        0.407312       -0.957046
H       -1.786987       -1.167259       -0.006120
C        1.802939        0.069440        0.001797
H        2.290747       -0.334496        0.843230
H        2.383092       -0.305412       -0.912226
H        1.851977        1.164009       -0.030126
N        0.408714       -0.456134        0.007261
N       -0.414734        0.445684        0.000886
10
  Step 2: 2.0 fs
C       -1.790697       -0.067630        0.003477
H       -2.374027        0.397158        0.902382
H       -2.448280        0.472529       -1.004645
H       -1.760489       -1.168019       -0.013341
C        1.802355        0.071363        0.001671
H        2.278102       -0.344285        0.810330
H        2.444651       -0.278558       -0.927112
H        1.885689        1.163229       -0.057468
N        0.406951       -0.452795        0.014517
N       -0.418793        0.432169        0.001829
10
  Step 3: 3.0 fs
C       -1.787364       -0.065470        0.003751
H       -2.391410        0.418062        0.892941
H       -2.488689        0.520149       -1.026201
H       -1.739598       -1.167594       -0.021220
C        1.802022        0.073805       -0.001549
H        2.278548       -0.362856        0.801361
H        2.490331       -0.250945       -0.929006
H        1.915544        1.163778       -0.080212
N        0.406098       -0.450600        0.021456
N       -0.423324        0.420376        0.002631
10
  Step 4: 4.0 fs
C       -1.786737       -0.061714        0.003086
H       -2.396181        0.427487        0.870779
H       -2.505666        0.547723       -1.020843
H       -1.726479       -1.165564       -0.029771
C        1.802354        0.076765       -0.007824
H        2.291203       -0.388607        0.814983
H        2.516484       -0.224424       -0.917274
H        1.939906        1.165631       -0.096315
N        0.406460       -0.449949        0.027964
N       -0.428436        0.410971        0.003229
10
  Step 5: 5.0 fs
C       -1.788874       -0.056533        0.001382
H       -2.388755        0.425392        0.838657
H       -2.498161        0.554151       -0.989710
H       -1.722733       -1.161565       -0.038897
C        1.804011        0.079874       -0.016097
H        2.309653       -0.414845        0.840497
H        2.522065       -0.201516       -0.894030
H        1.957389        1.168741       -0.104091
N        0.408164       -0.451036        0.033949
N       -0.434062        0.404370        0.003573
10
  Step 6: 6.0 fs
C       -1.793558       -0.050289       -0.001685
H       -2.372202        0.413899        0.803121
H       -2.466268        0.539292       -0.935370
H       -1.729308       -1.155395       -0.048402
C        1.807438        0.082748       -0.024991
H        2.326887       -0.434268        0.866091
H        2.508782       -0.185183       -0.863969
H        1.966945        1.173115       -0.102385
N        0.411122       -0.453814        0.039340
N       -0.439930        0.400693        0.003634
10
  Step 7: 7.0 fs
C       -1.800226       -0.043572       -0.006592
H       -2.352432        0.397440        0.774760
H       -2.411944        0.504589       -0.862858
H       -1.746417       -1.147147       -0.058003
C        1.812552        0.085245       -0.033127
H        2.338233       -0.441923        0.883573
H        2.481846       -0.178832       -0.835029
H        1.967995        1.178654       -0.090759
N        0.415052       -0.458011        0.044077
N       -0.445585        0.399777        0.003410
10
  Step 8: 8.0 fs
C       -1.807823       -0.037318       -0.013504
H       -2.336915        0.381735        0.766405
H       -2.341889        0.455704       -0.783498
H       -1.773475       -1.137392       -0.067363
C        1.818718        0.087498       -0.039151
H        2.341582       -0.435592        0.888705
H        2.449917       -0.186091       -0.818264
H        1.960565        1.184888       -0.069715
N        0.419537       -0.463192        0.048119
N       -0.450466        0.401232        0.002926
10
  Step 9: 9.0 fs
C       -1.814624       -0.033013       -0.020977
H       -2.330487        0.370464        0.786430
H       -2.273741        0.408560       -0.723484
H       -1.809111       -1.127318       -0.076161
C        1.825064        0.089796       -0.041944
H        2.336919       -0.415397        0.880476
H        2.422025       -0.209626       -0.824393
H        1.945359        1.190817       -0.040863
N        0.424103       -0.468846        0.051447
N       -0.454009        0.404519        0.002224
10
  Step 10: 10.0 fs
C       -1.818419       -0.032683       -0.025046
H       -2.331688        0.362595        0.831296
H       -2.237427        0.391876       -0.727130
H       -1.851295       -1.118774       -0.084189
C        1.831041        0.092324       -0.041251
H        2.326122       -0.383625        0.860838
H        2.401362       -0.248474       -0.856212
H        1.923688        1.195183       -0.006893
N        0.428290       -0.474455        0.054074
N       -0.455735        0.409025        0.001361
10
  Step 11: 11.0 fs
C       -1.819011       -0.036540       -0.023409
H       -2.335101        0.354505        0.887615
H       -2.243117        0.416793       -0.809261
H       -1.897582       -1.114241       -0.091364
C        1.836576        0.094999       -0.038074
H        2.313229       -0.344964        0.835331
H        2.383335       -0.296439       -0.904792
H        1.897236        1.197100        0.028719
N        0.431729       -0.479563        0.056037
N       -0.455296        0.414139        0.000414
10
  Step 12: 12.0 fs
C       -1.818975       -0.041907       -0.018716
H       -2.335782        0.343417        0.940825
H       -2.267200        0.459264       -0.924417
H       -1.945455       -1.115757       -0.097752
C        1.841579        0.097634       -0.034198
H        2.304574       -0.306461        0.813406
H        2.361365       -0.344542       -0.955813
H        1.867743        1.196561        0.062241
N        0.434179       -0.483815        0.057398
N       -0.452511        0.419312       -0.000534
10
  Step 13: 13.0 fs
C       -1.820186       -0.046719       -0.013562
H       -2.330905        0.328368        0.980251
H       -2.290894        0.498444       -1.031126
H       -1.992444       -1.122845       -0.103654
C        1.845637        0.100134       -0.031418
H        2.307539       -0.276002        0.806316
H        2.331695       -0.384764       -0.997147
H        1.836785        1.194420        0.090230
N        0.435532       -0.486971        0.058229
N       -0.447419        0.424078       -0.001427
10
  Step 14: 14.0 fs
C       -1.823285       -0.050279       -0.009047
H       -2.319662        0.309849        1.000046
H       -2.307038        0.525730       -1.110192
H       -2.036000       -1.132414       -0.109426
C        1.848328        0.102338       -0.030750
H        2.326426       -0.258350        0.819941
H        2.293862       -0.411614       -1.021325
H        1.805729        1.191920        0.109945
N        0.435786       -0.488908        0.058617
N       -0.440239        0.428076       -0.002234
10
  Step 15: 15.0 fs
C       -1.828310       -0.052584       -0.005626
H       -2.302854        0.289402        0.998629
H       -2.313699        0.538511       -1.154336
H       -2.073548       -1.140418       -0.115300
C        1.849626        0.103847       -0.031984
H        2.358869       -0.252493        0.848878
H        2.249614       -0.422125       -1.025218
H        1.775817        1.190091        0.119572
N        0.435025       -0.489611        0.058659
N       -0.431312        0.431054       -0.002944
10
  Step 16: 16.0 fs
C       -1.835012       -0.053850       -0.003717
H       -2.282776        0.269480        0.978434
H       -2.310675        0.536335       -1.160923
H       -2.102788       -1.143584       -0.121368
C        1.849813        0.104228       -0.034062
H        2.397691       -0.253800        0.880531
H        2.202178       -0.415691       -1.009608
H        1.748277        1.189291        0.118277
N        0.433393       -0.489167        0.058464
N       -0.421055        0.432876       -0.003549
10
  Step 17: 17.0 fs
C       -1.842935       -0.054339       -0.003961
H       -2.263369        0.253521        0.946389
H       -2.298432        0.519649       -1.129359
H       -2.122021       -1.140420       -0.127607
C        1.849130        0.103330       -0.035714
H        2.435310       -0.257525        0.903048
H        2.156048       -0.394354       -0.979572
H        1.724345        1.189134        0.106129
N        0.431089       -0.487763        0.058161
N       -0.409936        0.433524       -0.004045
10
  Step 18: 18.0 fs
C       -1.851426       -0.054307       -0.007226
H       -2.249942        0.245759        0.913760
H       -2.278024        0.489757       -1.060963
H       -2.130373       -1.131571       -0.133857
C        1.847590        0.101442       -0.035632
H        2.466082       -0.260321        0.908918
H        2.116984       -0.363494       -0.945724
H        1.705166        1.188831        0.083992
N        0.428363       -0.485679        0.057886
N       -0.398474        0.433106       -0.004432
10
  Step 19: 19.0 fs
C       -1.859697       -0.054017       -0.014159
H       -2.247615        0.250058        0.893065
H       -2.251848        0.449929       -0.961220
H       -2.127876       -1.119736       -0.139769
C        1.844997        0.099216       -0.032484
H        2.486698       -0.260317        0.895029
H        2.091336       -0.331528       -0.923942
H        1.691613        1.187709        0.053470
N        0.425530       -0.483285        0.057780
N       -0.387226        0.431854       -0.004718
10
  Step 20: 20.0 fs
C       -1.866849       -0.053874       -0.023966
H       -2.258132        0.267379        0.890799
H       -2.226338        0.409066       -0.846842
H       -2.115427       -1.109139       -0.144827
C        1.841147        0.097299       -0.025405
H        2.496044       -0.256912        0.862042
H        2.083694       -0.306159       -0.928644
H        1.684125        1.185680        0.016855
N        0.422955       -0.481017        0.057969
N       -0.376783        0.430113       -0.004927
10
  Step 21: 21.0 fs
C       -1.871517       -0.055031       -0.032962
H       -2.278164        0.294149        0.902931
H       -2.217668        0.389148       -0.758075
H       -2.094583       -1.104296       -0.148558
C        1.836040        0.095846       -0.014997
H        2.495558       -0.250854        0.814513
H        2.093765       -0.288725       -0.960713
H        1.682643        1.183341       -0.023048
N        0.421033       -0.479342        0.058557
N       -0.367752        0.428309       -0.005116
10
  Step 22: 22.0 fs
C       -1.871929       -0.059292       -0.036024
H       -2.301682        0.324045        0.919737
H       -2.248882        0.420679       -0.745955
H       -2.067228       -1.108207       -0.150865
C        1.829774        0.094645       -0.003464
H        2.490247       -0.244720        0.761586
H        2.116449       -0.274789       -1.006309
H        1.686709        1.181506       -0.063240
N        0.420141       -0.478692        0.059611
N       -0.360712        0.426887       -0.005363
10
  Step 23: 23.0 fs
C       -1.868676       -0.065527       -0.033420
H       -2.323177        0.350965        0.932748
H       -2.314637        0.496344       -0.798209
H       -2.035287       -1.121542       -0.152078
C        1.822244        0.093656        0.006474
H        2.488898       -0.242933        0.716117
H        2.145171       -0.259850       -1.048780
H        1.695627        1.180555       -0.100803
N        0.420577       -0.479392        0.061170
N       -0.356115        0.426218       -0.005726
10
  Step 24: 24.0 fs
C       -1.864120       -0.070594       -0.028780
H       -2.338827        0.370418        0.936612
H       -2.387459        0.580140       -0.865625
H       -2.000525       -1.142048       -0.152680
C        1.813245        0.093093        0.012675
H        2.500620       -0.249942        0.689694
H        2.174310       -0.241989       -1.076716
H        1.708537        1.180267       -0.133053
N        0.422475       -0.481579        0.063237
N       -0.354212        0.426513       -0.006232
10
  Step 25: 25.0 fs
C       -1.859672       -0.072891       -0.024111
H       -2.346559        0.379745        0.928736
H       -2.449914        0.649510       -0.921248
H       -1.964476       -1.164610       -0.152947
C        1.803106        0.093043        0.014296
H        2.527132       -0.266385        0.684903
H        2.199770       -0.221462       -1.084657
H        1.724355        1.180245       -0.157619
N        0.425759       -0.485172        0.065781
N       -0.355042        0.427784       -0.006892
10
  Step 26: 26.0 fs
C       -1.855791       -0.072207       -0.020202
H       -2.346031        0.378143        0.909451
H       -2.494696        0.695389       -0.955747
H       -1.928560       -1.183111       -0.152854
C        1.792944        0.093243        0.011738
H        2.560100       -0.287839        0.694511
H        2.218836       -0.199749       -1.071522
H        1.741749        1.180386       -0.172553
N        0.430133       -0.489881        0.068734
N       -0.358434        0.429851       -0.007701
10
  Step 27: 27.0 fs
C       -1.852445       -0.068916       -0.017544
H       -2.338711        0.366697        0.882312
H       -2.518965        0.714696       -0.966672
H       -1.894238       -1.192426       -0.152252
C        1.784089        0.093318        0.005967
H        2.587793       -0.308229        0.708646
H        2.230162       -0.179090       -1.039686
H        1.759220        1.180991       -0.176416
N        0.435132       -0.495253        0.072000
N       -0.364030        0.432378       -0.008634
10
  Step 28: 28.0 fs
C       -1.849355       -0.063578       -0.016729
H       -2.327966        0.348395        0.854391
H       -2.521549        0.706629       -0.953879
H       -1.862969       -1.189552       -0.151097
C        1.777498        0.093049       -0.001926
H        2.601325       -0.322889        0.720168
H        2.234072       -0.162304       -0.995070
H        1.775239        1.182583       -0.168350
N        0.440194       -0.500752        0.075468
N       -0.371338        0.434957       -0.009651
10
  Step 29: 29.0 fs
C       -1.846117       -0.056757       -0.018472
H       -2.318634        0.327603        0.835564
H       -2.502099        0.671575       -0.918364
H       -1.836098       -1.174223       -0.149575
C        1.773538        0.092454       -0.010714
H        2.596110       -0.329295        0.725502
H        2.233244       -0.152772       -0.948039
H        1.788424        1.185570       -0.148206
N        0.444745       -0.505833        0.079015
N       -0.379793        0.437178       -0.010704
10
  Step 30: 30.0 fs
C       -1.842359       -0.048868       -0.023291
H       -2.315061        0.308185        0.835068
H       -2.461356        0.611393       -0.862635
H       -1.814682       -1.149109       -0.148124
C        1.771986        0.091785       -0.018994
H        2.571344       -0.326889        0.723998
H        2.232912       -0.154144       -0.912941
H        1.797709        1.189820       -0.116732
N        0.448261       -0.510003        0.082517
N       -0.388792        0.438701       -0.011744
10
  Step 31: 31.0 fs
C       -1.837865       -0.040163       -0.030827
H       -2.318042        0.291081        0.855797
H       -2.403036        0.531489       -0.793165
H       -1.799297       -1.119678       -0.147326
C        1.772244        0.091424       -0.025555
H        2.529442       -0.316860        0.717439
H        2.238734       -0.169033       -0.903121
H        1.802476        1.194425       -0.075756
N        0.450301       -0.512859        0.085853
N       -0.397744        0.439287       -0.012733
10
  Step 32: 32.0 fs
C       -1.832162       -0.031248       -0.039066
H       -2.324009        0.274274        0.891914
H       -2.339440        0.446349       -0.727472
H       -1.789881       -1.093360       -0.147651
C        1.773739        0.091668       -0.030151
H        2.476144       -0.302313        0.710197
H        2.252034       -0.196575       -0.921796
H        1.802584        1.197932       -0.028206
N        0.450529       -0.514106        0.088912
N       -0.406097        0.438810       -0.013654
10
  Step 33: 33.0 fs
C       -1.823587       -0.023982       -0.043792
H       -2.327804        0.255367        0.932483
H       -2.299487        0.385612       -0.704439
H       -1.785766       -1.077403       -0.149101
C        1.776085        0.092607       -0.033765
H        2.420360       -0.288319        0.709295
H        2.268138       -0.231605       -0.959276
H        1.798305        1.198977        0.022165
N        0.448730       -0.513564        0.091588
N       -0.413393        0.437259       -0.014518
10
  Step 34: 34.0 fs
C       -1.810539       -0.020145       -0.041067
H       -2.325608        0.233591        0.966865
H       -2.310725        0.373687       -0.760463
H       -1.785930       -1.076196       -0.151148
C        1.778894        0.094206       -0.037874
H        2.372296       -0.281029        0.722989
H        2.280585       -0.267115       -1.000795
H        1.790231        1.196890        0.071302
N        0.444825       -0.511176        0.093776
N       -0.419272        0.434732       -0.015350
10
  Step 35: 35.0 fs
C       -1.795274       -0.018484       -0.032825
H       -2.315754        0.209826        0.987920
H       -2.353652        0.392985       -0.865813
H       -1.789357       -1.089603       -0.153130
C        1.781891        0.096266       -0.043432
H        2.338371       -0.284613        0.755517
H        2.284916       -0.297065       -1.034069
H        1.779215        1.191897        0.115417
N        0.438901       -0.507004        0.095377
N       -0.423449        0.431429       -0.016162
10
  Step 36: 36.0 fs
C       -1.780878       -0.017659       -0.022862
H       -2.298414        0.185969        0.992530
H       -2.397349        0.419005       -0.972506
H       -1.795217       -1.112224       -0.154623
C        1.785152        0.098302       -0.050308
H        2.317737       -0.298511        0.802005
H        2.279313       -0.317388       -1.051468
H        1.766339        1.184918        0.151439
N        0.431202       -0.501237        0.096303
N       -0.425750        0.427647       -0.016966
10
  Step 37: 37.0 fs
C       -1.768907       -0.017683       -0.013313
H       -2.275397        0.164477        0.981436
H       -2.427112        0.440608       -1.055804
H       -1.802636       -1.135969       -0.155423
C        1.788914        0.099671       -0.057527
H        2.305148       -0.318482        0.850851
H        2.264064       -0.325972       -1.049747
H        1.752876        1.177161        0.177184
N        0.422122       -0.494194        0.096493
N       -0.426161        0.423765       -0.017794
10
  Step 38: 38.0 fs
C       -1.759890       -0.019072       -0.005353
H       -2.250262        0.148109        0.959419
H       -2.438219        0.453958       -1.106348
H       -1.810566       -1.153746       -0.155443
C        1.793221        0.099858       -0.063877
H        2.295648       -0.339691        0.890442
H        2.241181       -0.322606       -1.029736
H        1.740188        1.169748        0.191419
N        0.412190       -0.486316        0.095924
N       -0.424845        0.420231       -0.018695
10
  Step 39: 39.0 fs
C       -1.753833       -0.022289        0.000037
H       -2.228189        0.139716        0.935112
H       -2.429721        0.457806       -1.120943
H       -1.817906       -1.161189       -0.154678
C        1.797793        0.098662       -0.068165
H        2.286334       -0.358443        0.912869
H        2.214564       -0.309321       -0.996957
H        1.729580        1.163579        0.193736
N        0.402054       -0.478163        0.094617
N       -0.422141        0.417558       -0.019729
10
  Step 40: 40.0 fs
C       -1.750492       -0.027530        0.001898
H       -2.214964        0.141829        0.919045
H       -2.402037        0.451777       -1.098788
H       -1.823694       -1.157106       -0.153152
C        1.802044        0.096247       -0.069160
H        2.276190       -0.372456        0.914328
H        2.190193       -0.290850       -0.962480
H        1.722142        1.159369        0.184485
N        0.392432       -0.470375        0.092637
N       -0.418536        0.416300       -0.020959
10
  Step 41: 41.0 fs
C       -1.749637       -0.034623       -0.000311
H       -2.214110        0.155718        0.918178
H       -2.356505        0.436026       -1.040753
H       -1.827255       -1.143520       -0.150882
C        1.805220        0.093062       -0.065657
H        2.265596       -0.380743        0.894625
H        2.175261       -0.273984       -0.941651
H        1.718634        1.157722        0.164713
N        0.384052       -0.463607        0.090072
N       -0.414605        0.416997       -0.022439
10
  Step 42: 42.0 fs
C       -1.751201       -0.042988       -0.006191
H       -2.224326        0.180306        0.930949
H       -2.296205        0.411823       -0.950790
H       -1.828299       -1.125648       -0.147848
C        1.806699        0.089553       -0.057146
H        2.256307       -0.383787        0.857336
H        2.174584       -0.263950       -0.946125
H        1.719429        1.159152        0.136128
N        0.377563       -0.458434        0.087027
N       -0.410914        0.420078       -0.024198
10
  Step 43: 43.0 fs
C       -1.754954       -0.051876       -0.014104
H       -2.240360        0.212011        0.948774
H       -2.228888        0.383973       -0.840995
H       -1.826952       -1.111271       -0.143993
C        1.806282        0.085888       -0.044738
H        2.251933       -0.384227        0.810805
H        2.186647       -0.260346       -0.973796
H        1.724558        1.163829        0.100989
N        0.373444       -0.455236        0.083607
N       -0.407934        0.425760       -0.026223
10
  Step 44: 44.0 fs
C       -1.759698       -0.061190       -0.020737
H       -2.256240        0.245936        0.962172
H       -2.173253        0.367173       -0.742662
H       -1.823734       -1.108561       -0.139316
C        1.804012        0.082187       -0.030975
H        2.258338       -0.387342        0.768175
H        2.204961       -0.258721       -1.010969
H        1.733863        1.171028        0.061923
N        0.371938       -0.454120        0.079907
N       -0.405961        0.433958       -0.028456
10
  Step 45: 45.0 fs
C       -1.763036       -0.072340       -0.021291
H       -2.267607        0.277367        0.964936
H       -2.159681        0.390184       -0.707875
H       -1.819446       -1.121795       -0.134023
C        1.799910        0.078771       -0.018542
H        2.282033       -0.399286        0.743052
H        2.222699       -0.255075       -1.043153
H        1.747062        1.178850        0.021732
N        0.373028       -0.454887        0.076001
N       -0.405076        0.444275       -0.030797
10
  Step 46: 46.0 fs
C       -1.764368       -0.085565       -0.014711
H       -2.272215        0.302637        0.955067
H       -2.194881        0.460685       -0.747999
H       -1.814935       -1.149232       -0.128533
C        1.794224        0.075830       -0.008977
H        2.324904       -0.421710        0.740122
H        2.235102       -0.247683       -1.060966
H        1.763678        1.184768       -0.016673
N        0.376465       -0.457076        0.071942
N       -0.405135        0.456053       -0.033113
10
  Step 47: 47.0 fs
C       -1.765797       -0.098173       -0.005043
H       -2.269802        0.319514        0.933968
H       -2.251311        0.545083       -0.816786
H       -1.810839       -1.184406       -0.123119
C        1.787777        0.073054       -0.002341
H        2.380411       -0.448719        0.751652
H        2.239588       -0.236730       -1.060293
H        1.782918        1.186632       -0.050458
N        0.381824       -0.460055        0.067759
N       -0.405855        0.468479       -0.035269
10
  Step 48: 48.0 fs
C       -1.768667       -0.108356        0.004557
H       -2.261998        0.327486        0.905424
H       -2.307931        0.615941       -0.880723
H       -1.807526       -1.218572       -0.117672
C        1.781692        0.069926        0.002019
H        2.437538       -0.471512        0.765658
H        2.235326       -0.223688       -1.041027
H        1.803658        1.183340       -0.077048
N        0.388559       -0.463142        0.063473
N       -0.406941        0.480696       -0.037164
10
  Step 49: 49.0 fs
C       -1.773122       -0.115778        0.012470
H       -2.252335        0.328042        0.875710
H       -2.355705        0.661889       -0.926871
H       -1.805198       -1.243888       -0.111872
C        1.776920        0.066107        0.004825
H        2.486425       -0.483482        0.773340
H        2.223131       -0.211005       -1.006587
H        1.824563        1.175065       -0.094285
N        0.396071       -0.465696        0.059110
N       -0.408119        0.491903       -0.038735
10
  Step 50: 50.0 fs
C       -1.778746       -0.120716        0.017653
H       -2.245746        0.324492        0.853178
H       -2.391055        0.679324       -0.951098
H       -1.803985       -1.255245       -0.105457
C        1.774021        0.061540        0.006800
H        2.520536       -0.481512        0.770503
H        2.205732       -0.202016       -0.964403
H        1.844271        1.163212       -0.100607
N        0.403770       -0.467188        0.054709
N       -0.409153        0.501420       -0.039942
10
  Step 51: 51.0 fs
C       -1.785021       -0.123480        0.019341
H       -2.246892        0.320630        0.845894
H       -2.412341        0.667454       -0.952193
H       -1.803976       -1.250916       -0.098398
C        1.773130        0.056409        0.008788
H        2.536512       -0.465321        0.756495
H        2.187825       -0.200705       -0.926019
H        1.861585        1.150075       -0.095258
N        0.411106       -0.467225        0.050330
N       -0.409844        0.508730       -0.040756
10
  Step 52: 52.0 fs
C       -1.791660       -0.124042        0.017269
H       -2.257423        0.318136        0.857222
H       -2.418681        0.626635       -0.930073
H       -1.805193       -1.232800       -0.090993
C        1.774045        0.051068        0.011638
H        2.533941       -0.436975        0.733489
H        2.175031       -0.210816       -0.904824
H        1.875608        1.138213       -0.078503
N        0.417598       -0.465565        0.046051
N       -0.410035        0.513483       -0.041161
10
  Step 53: 53.0 fs
C       -1.798734       -0.121926        0.011851
H       -2.274699        0.315260        0.883605
H       -2.409810        0.558298       -0.885673
H       -1.807517       -1.206350       -0.083782
C        1.776423        0.045937        0.015617
H        2.515804       -0.400974        0.706623
H        2.170758       -0.233803       -0.908966
H        1.885774        1.129715       -0.051743
N        0.422852       -0.462115        0.041964
N       -0.409612        0.515511       -0.041148
10
  Step 54: 54.0 fs
C       -1.806453       -0.116514        0.004074
H       -2.293439        0.308408        0.917026
H       -2.387024        0.466283       -0.822385
H       -1.810579       -1.179838       -0.077265
C        1.779892        0.041419        0.019820
H        2.489503       -0.364585        0.684598
H        2.173669       -0.267012       -0.935009
H        1.891800        1.125654       -0.017440
N        0.426583       -0.456928        0.038164
N       -0.408524        0.514829       -0.040725
10
  Step 55: 55.0 fs
C       -1.814618       -0.107788       -0.004459
H       -2.308532        0.294718        0.949244
H       -2.356729        0.360608       -0.751008
H       -1.813620       -1.161888       -0.071359
C        1.783910        0.037930        0.022456
H        2.466606       -0.337192        0.679159
H        2.179428       -0.304630       -0.970931
H        1.893616        1.125925        0.021203
N        0.428645       -0.450208        0.034738
N       -0.406806        0.511635       -0.039930
10
  Step 56: 56.0 fs
C       -1.821785       -0.097255       -0.010813
H       -2.316553        0.273278        0.973822
H       -2.338631        0.263287       -0.700411
H       -1.815447       -1.157396       -0.065123
C        1.787942        0.035804        0.021903
H        2.457326       -0.326654        0.699903
H        2.184089       -0.340474       -1.003892
H        1.891399        1.129421        0.060755
N        0.429037       -0.442303        0.031746
N       -0.404616        0.506319       -0.038847
10
  Step 57: 57.0 fs
C       -1.825216       -0.087528       -0.010870
H       -2.316058        0.245118        0.986508
H       -2.365769        0.201286       -0.715649
H       -1.814636       -1.165382       -0.057043