10
  Step 0: 0.0 fs
C       -1.803708       -0.067741        0.000064
H       -2.311491        0.330697        0.889256
H       -2.311364        0.329957       -0.889477
H       -1.816419       -1.165812        0.000688
C        1.803676        0.067712        0.000029
H        2.310885       -0.329687        0.890043
H        2.312178       -0.330880       -0.888638
H        1.816241        1.165780       -0.000412
N        0.410958       -0.460070       -0.000166
N       -0.410934        0.460088       -0.000121
10
  Step 1: 1.0 fs
C       -1.809345       -0.056307       -0.005111
H       -2.326520        0.399138        0.908679
H       -2.302111        0.324819       -0.855487
H       -1.761526       -1.269748       -0.042514
C        1.791805        0.071835       -0.003147
H        2.268355       -0.323819        0.854945
H        2.343392       -0.343949       -0.922391
H        1.807665        1.164716        0.022331
N        0.418312       -0.461092        0.007571
N       -0.405388        0.451298        0.001883
10
  Step 2: 2.0 fs
C       -1.814329       -0.046921       -0.008596
H       -2.336119        0.458550        0.919329
H       -2.299358        0.324902       -0.835231
H       -1.711235       -1.347439       -0.082223
C        1.780281        0.075853       -0.007850
H        2.233734       -0.323318        0.831421
H        2.367170       -0.351390       -0.945698
H        1.799082        1.165132        0.043493
N        0.425461       -0.462326        0.015141
N       -0.400120        0.442824        0.003810
10
  Step 3: 3.0 fs
C       -1.817987       -0.040307       -0.009315
H       -2.337522        0.503077        0.916809
H       -2.307714        0.333811       -0.838679
H       -1.669405       -1.389405       -0.115839
C        1.769401        0.079812       -0.014934
H        2.213011       -0.332186        0.827740
H        2.379019       -0.350101       -0.953205
H        1.790491        1.167897        0.061790
N        0.432181       -0.463973        0.022382
N       -0.395433        0.434932        0.005595
10
  Step 4: 4.0 fs
C       -1.820136       -0.036413       -0.007399
H       -2.330137        0.529570        0.900279
H       -2.325333        0.350324       -0.864350
H       -1.638799       -1.393217       -0.141500
C        1.759704        0.083614       -0.024169
H        2.206761       -0.349713        0.842642
H        2.377019       -0.339033       -0.943624
H        1.781880        1.172922        0.076326
N        0.438224       -0.466202        0.029143
N       -0.391578        0.427849        0.007183
10
  Step 5: 5.0 fs
C       -1.821022       -0.034825       -0.004012
H       -2.315115        0.537128        0.871728
H       -2.344928        0.369255       -0.901094
H       -1.621552       -1.359228       -0.157699
C        1.751892        0.087012       -0.034404
H        2.210844       -0.370733        0.866554
H        2.361631       -0.318901       -0.919122
H        1.773213        1.179178        0.086581
N        0.443344       -0.469146        0.035299
N       -0.388719        0.421783        0.008538
10
  Step 6: 6.0 fs
C       -1.820882       -0.035184       -0.000658
H       -2.295424        0.527243        0.836047
H       -2.358833        0.385219       -0.936461
H       -1.619457       -1.289701       -0.163172
C        1.746428        0.089880       -0.044102
H        2.220049       -0.389078        0.888472
H        2.336255       -0.292414       -0.885847
H        1.764429        1.185067        0.092339
N        0.447317       -0.472887        0.040758
N       -0.386902        0.416922        0.009637
10
  Step 7: 7.0 fs
C       -1.819678       -0.037288        0.001199
H       -2.276125        0.504317        0.801526
H       -2.361963        0.394807       -0.961646
H       -1.633808       -1.190134       -0.157127
C        1.743242        0.092401       -0.051633
H        2.230499       -0.400122        0.900531
H        2.308050       -0.264665       -0.854889
H        1.755447        1.189057        0.093652
N        0.449966       -0.477443        0.045461
N       -0.386058        0.413426        0.010469
10
  Step 8: 8.0 fs
C       -1.817189       -0.040611        0.000323
H       -2.263951        0.475461        0.779196
H       -2.352121        0.396765       -0.972104
H       -1.664278       -1.074628       -0.140165
C        1.741755        0.094990       -0.055394
H        2.240010       -0.401288        0.898612
H        2.287205       -0.242481       -0.841266
H        1.746180        1.190327        0.090784
N        0.451158       -0.482760        0.049382
N       -0.386019        0.411391        0.011026
10
  Step 9: 9.0 fs
C       -1.813397       -0.042967       -0.003862
H       -2.264797        0.447757        0.778635
H       -2.329411        0.391509       -0.966706
H       -1.706774       -0.977868       -0.116166
C        1.741395        0.097943       -0.054396
H        2.247890       -0.391823        0.881747
H        2.281335       -0.230801       -0.856309
H        1.736552        1.189167        0.084187
N        0.450803       -0.488705        0.052522
N       -0.386573        0.410796        0.011312
10
  Step 10: 10.0 fs
C       -1.808703       -0.039777       -0.010766
H       -2.279849        0.424119        0.801442
H       -2.295974        0.380859       -0.947456
H       -1.754313       -0.958682       -0.092111
C        1.742204        0.101064       -0.049080
H        2.254844       -0.372658        0.851834
H        2.288514       -0.228463       -0.897549
H        1.726513        1.187051        0.074474
N        0.448858       -0.495073        0.054911
N       -0.387540        0.411448        0.011348
10
  Step 11: 11.0 fs
C       -1.803239       -0.029521       -0.019177
H       -2.304700        0.402979        0.839881
H       -2.256336        0.368456       -0.920450
H       -1.805930       -1.035287       -0.069322
C        1.744617        0.103875       -0.041167
H        2.263317       -0.346655        0.814071
H        2.299511       -0.229816       -0.950858
H        1.716055        1.186085        0.062269
N        0.445358       -0.501600        0.056597
N       -0.388788        0.413001        0.011173
10
  Step 12: 12.0 fs
C       -1.797019       -0.017005       -0.027484
H       -2.332283        0.381557        0.881933
H       -2.217864        0.360048       -0.897144
H       -1.862234       -1.150927       -0.044550
C        1.748767        0.106106       -0.032765
H        2.277886       -0.318759        0.777153
H        2.305471       -0.229446       -1.001210
H        1.705243        1.187991        0.048102
N        0.440435       -0.507991        0.057654
N       -0.390183        0.415052        0.010848
10
  Step 13: 13.0 fs
C       -1.790350       -0.006452       -0.033562
H       -2.355889        0.358048        0.916341
H       -2.189333        0.361918       -0.892109
H       -1.918876       -1.257220       -0.018556
C        1.754257        0.107877       -0.025763
H        2.304563       -0.295033        0.751638
H        2.301253       -0.224188       -1.038307
H        1.694243        1.193212        0.032463
N        0.434317       -0.513956        0.058185
N       -0.391588        0.417204        0.010449
10
  Step 14: 14.0 fs
C       -1.783721        0.000394       -0.035991
H       -2.370821        0.332293        0.935358
H       -2.176023        0.376846       -0.913283
H       -1.971055       -1.333625        0.006078
C        1.760518        0.109432       -0.021366
H        2.347276       -0.279532        0.744380
H        2.285045       -0.212909       -1.056803
H        1.683342        1.200684        0.015966
N        0.427317       -0.519251        0.058314
N       -0.392886        0.419113        0.010057
10
  Step 15: 15.0 fs
C       -1.777956        0.003353       -0.034988
H       -2.374727        0.305529        0.935391
H       -2.175849        0.401083       -0.953485
H       -2.015214       -1.373505        0.027056
C        1.767318        0.110824       -0.019729
H        2.403414       -0.271443        0.753154
H        2.257347       -0.195922       -1.055219
H        1.672952        1.208361       -0.000499
N        0.419792       -0.523695        0.058175
N       -0.393980        0.420524        0.009756
10
  Step 16: 16.0 fs
C       -1.773974        0.002855       -0.031852
H       -2.367455        0.280033        0.916663
H       -2.182531        0.427288       -0.996745
H       -2.048725       -1.375394        0.042625
C        1.774786        0.111931       -0.020146
H        2.464367       -0.266384        0.768786
H        2.220605       -0.174789       -1.035762
H        1.663554        1.214064       -0.015744
N        0.412105       -0.527182        0.057900
N       -0.394803        0.421279        0.009614
10
  Step 17: 17.0 fs
C       -1.772365       -0.000690       -0.028066
H       -2.351330        0.259130        0.883494
H       -2.190404        0.449020       -1.029021
H       -2.069494       -1.339977        0.051379
C        1.783019        0.112703       -0.021488
H        2.520403       -0.259887        0.781567
H        2.179360       -0.152451       -1.005185
H        1.655613        1.216202       -0.028412
N        0.404601       -0.529678        0.057609
N       -0.395326        0.421315        0.009683
10
  Step 18: 18.0 fs
C       -1.773209       -0.007073       -0.025025
H       -2.331665        0.247372        0.844930
H       -2.196026        0.462307       -1.041983
H       -2.075819       -1.269590        0.052083
C        1.791791        0.113287       -0.022390
H        2.564181       -0.249234        0.784837
H        2.140290       -0.133319       -0.975978
H        1.649487        1.214188       -0.037165
N        0.397597       -0.531216        0.057415
N       -0.395570        0.420648        0.009995
10
  Step 19: 19.0 fs
C       -1.776106       -0.016125       -0.024032
H       -2.316330        0.250430        0.814020
H       -2.197901        0.465443       -1.032441
H       -2.066707       -1.169655        0.043736
C        1.800601        0.113957       -0.021431
H        2.591671       -0.233615        0.775470
H        2.110719       -0.122418       -0.964331
H        1.645370        1.208585       -0.040940
N        0.391382       -0.531893        0.057417
N       -0.395601        0.419365        0.010566
10
  Step 20: 20.0 fs
C       -1.780384       -0.027108       -0.025973
H       -2.312275        0.273415        0.802434
H       -2.196022        0.458626       -1.001415
H       -2.043309       -1.053891        0.026087
C        1.809008        0.114873       -0.017872
H        2.601944       -0.213793        0.753431
H        2.094805       -0.122692       -0.980679
H        1.643264        1.200975       -0.039184
N        0.386215       -0.531856        0.057704
N       -0.395527        0.417601        0.011401
10
  Step 21: 21.0 fs
C       -1.785271       -0.037373       -0.030668
H       -2.319970        0.317047        0.811781
H       -2.191831        0.444153       -0.954210
H       -2.012462       -0.956419        0.000734
C        1.816810        0.115902       -0.012469
H        2.597383       -0.192027        0.721888
H        2.091057       -0.132603       -1.019959
H        1.642998        1.193579       -0.032009
N        0.382330       -0.531286        0.058353
N       -0.395491        0.415513        0.012483
10
  Step 22: 22.0 fs
C       -1.789747       -0.041735       -0.036683
H       -2.332916        0.375003        0.832396
H       -2.188726        0.427175       -0.901463
H       -1.988403       -0.937523       -0.028762
C        1.823752        0.116799       -0.007092
H        2.584358       -0.172172        0.687601
H        2.094924       -0.147519       -1.066476
H        1.644300        1.188627       -0.020192
N        0.379928       -0.530374        0.059415
N       -0.395661        0.413262        0.013775
10
  Step 23: 23.0 fs
C       -1.793422       -0.038162       -0.041771
H       -2.343376        0.436765        0.852065
H       -2.192583        0.416079       -0.859415
H       -1.976628       -1.019585       -0.060082
C        1.829224        0.117491       -0.003754
H        2.573102       -0.159416        0.660486
H        2.102247       -0.162687       -1.105136
H        1.646943        1.187618       -0.004970
N        0.379164       -0.529291        0.060918
N       -0.396161        0.411030        0.015223
10
  Step 24: 24.0 fs
C       -1.796914       -0.031510       -0.043925
H       -2.346346        0.492681        0.862626
H       -2.210148        0.419517       -0.845016
H       -1.967292       -1.144768       -0.091130
C        1.832491        0.118095       -0.003931
H        2.573896       -0.158617        0.649986
H        2.110323       -0.174630       -1.126384
H        1.650888        1.190811        0.012293
N        0.380129       -0.528164        0.062864
N       -0.397051        0.408996        0.016757
10
  Step 25: 25.0 fs
C       -1.800669       -0.025708       -0.042624
H       -2.339756        0.535985        0.860472
H       -2.242660        0.438664       -0.862833
H       -1.954715       -1.261538       -0.118870
C        1.833354        0.118675       -0.008051
H        2.589623       -0.171388        0.658653
H        2.117652       -0.181269       -1.126086
H        1.656341        1.197213        0.030377
N        0.382838       -0.527058        0.065221
N       -0.398373        0.407267        0.018303
10
  Step 26: 26.0 fs
C       -1.805185       -0.021692       -0.038950
H       -2.323823        0.562879        0.845426
H       -2.282778        0.465236       -0.900789
H       -1.938522       -1.347101       -0.141080
C        1.832421        0.119105       -0.015419
H        2.612963       -0.194899        0.680005
H        2.123632       -0.181737       -1.104455
H        1.663699        1.204907        0.048283
N        0.387214       -0.525971        0.067934
N       -0.400144        0.405854        0.019788
10
  Step 27: 27.0 fs
C       -1.810880       -0.019210       -0.034510
H       -2.300670        0.572232        0.820002
H       -2.320535        0.488938       -0.942304
H       -1.919958       -1.393360       -0.156396
C        1.830589        0.119203       -0.024669
H        2.632608       -0.224066        0.703953
H        2.128643       -0.176473       -1.066054
H        1.673391        1.211581        0.065213
N        0.393086       -0.524833        0.070919
N       -0.402324        0.404696        0.021140
10
  Step 28: 28.0 fs
C       -1.817771       -0.018077       -0.030726
H       -2.274397        0.565739        0.789600
H       -2.348613        0.502803       -0.975400
H       -1.900566       -1.397781       -0.163917
C        1.828464        0.118938       -0.034144
H        2.639722       -0.254140        0.722335
H        2.134515       -0.167572       -1.020774
H        1.685683        1.215140        0.080502
N        0.400205       -0.523526        0.074076
N       -0.404801        0.403701        0.022289
10
  Step 29: 29.0 fs
C       -1.825434       -0.018512       -0.028815
H       -2.251082        0.548248        0.762910
H       -2.363105        0.503545       -0.993594
H       -1.881973       -1.360212       -0.163008
C        1.826192        0.118472       -0.042029
H        2.629629       -0.281720        0.730440
H        2.144835       -0.158889       -0.983770
H        1.700558        1.214279        0.093598
N        0.408258       -0.521911        0.077289
N       -0.407401        0.402783        0.023172
10
  Step 30: 30.0 fs
C       -1.833170       -0.021014       -0.029850
H       -2.237765        0.526979        0.750809
H       -2.362640        0.490448       -0.994231
H       -1.865928       -1.282607       -0.153331
C        1.823602        0.118011       -0.046746
H        2.601332       -0.304868        0.726754
H        2.163761       -0.154625       -0.970490
H        1.717656        1.208944        0.104106
N        0.416900       -0.519852        0.080432
N       -0.409898        0.401894        0.023733
10
  Step 31: 31.0 fs
C       -1.840302       -0.025799       -0.034368
H       -2.239369        0.507783        0.761218
H       -2.347870        0.464831       -0.977721
H       -1.854309       -1.171473       -0.135172
C        1.820579        0.117520       -0.047836
H        2.556893       -0.323111        0.712505
H        2.192309       -0.156056       -0.985907
H        1.736305        1.200538        0.111877
N        0.425762       -0.517231        0.083376
N       -0.412040        0.401044        0.023928
10
  Step 32: 32.0 fs
C       -1.846439       -0.031759       -0.041744
H       -2.255450        0.490864        0.792705
H       -2.321659        0.430236       -0.947991
H       -1.848920       -1.045925       -0.110171
C        1.817258        0.116659       -0.046340
H        2.501462       -0.337755        0.691770
H        2.226032       -0.160292       -1.020258
H        1.755660        1.191698        0.117047
N        0.434469       -0.513963        0.086005
N       -0.413590        0.400287        0.023725
10
  Step 33: 33.0 fs
C       -1.851370       -0.035219       -0.050038
H       -2.280897        0.471844        0.834907
H       -2.289867        0.393103       -0.914131
H       -1.850851       -0.953582       -0.081807
C        1.813763        0.115144       -0.044046
H        2.443418       -0.352349        0.671705
H        2.257962       -0.163147       -1.058095
H        1.774924        1.185366        0.119950
N        0.442654       -0.509997        0.088208
N       -0.414379        0.399692        0.023108
10
  Step 34: 34.0 fs
C       -1.854740       -0.031141       -0.056724
H       -2.309627        0.446760        0.875436
H       -2.261746        0.362885       -0.891684
H       -1.859982       -0.961005       -0.052342
C        1.809982        0.113046       -0.042673
H        2.393101       -0.372341        0.661551
H        2.282311       -0.161793       -1.087056
H        1.793526        1.183516        0.121012
N        0.449970       -0.505319        0.089887
N       -0.414337        0.399308        0.022068
10
  Step 35: 35.0 fs
C       -1.856023       -0.021072       -0.059655
H       -2.337111        0.414848        0.905142
H       -2.247358        0.349046       -0.898650
H       -1.875668       -1.059045       -0.020431
C        1.805835        0.110667       -0.043324
H        2.358471       -0.402163        0.668238
H        2.295602       -0.155233       -1.099939
H        1.811138        1.186221        0.120706
N        0.456099       -0.499946        0.090947
N       -0.413474        0.399174        0.020614
10
  Step 36: 36.0 fs
C       -1.855222       -0.010922       -0.057816
H       -2.360504        0.377712        0.918795
H       -2.249958        0.353274       -0.940107
H       -1.896080       -1.180616        0.011649
C        1.801664        0.108143       -0.046092
H        2.340587       -0.440869        0.690814
H        2.296434       -0.143889       -1.094013
H        1.827551        1.191679        0.119565
N        0.460767       -0.493938        0.091310
N       -0.411869        0.399326        0.018770
10
  Step 37: 37.0 fs
C       -1.853098       -0.003587       -0.052144
H       -2.378377        0.338014        0.914715
H       -2.262902        0.367513       -1.000041
H       -1.918553       -1.285219        0.040064
C        1.798142        0.105324       -0.050159
H        2.334576       -0.481887        0.720868
H        2.285239       -0.129249       -1.070363
H        1.842515        1.197068        0.118192
N        0.463785       -0.487402        0.090918
N       -0.409692        0.399793        0.016583
10
  Step 38: 38.0 fs
C       -1.850471        0.000270       -0.044493
H       -2.390838        0.299091        0.894790
H       -2.277078        0.382149       -1.056598
H       -1.940676       -1.357738        0.062338
C        1.795830        0.102035       -0.054271
H        2.334363       -0.517261        0.748417
H        2.264555       -0.113820       -1.034324
H        1.855682        1.199604        0.117276
N        0.465070       -0.480508        0.089750
N       -0.407181        0.400632        0.014110
10
  Step 39: 39.0 fs
C       -1.847739        0.000534       -0.036585
H       -2.399884        0.264875        0.864682
H       -2.286304        0.390971       -1.094581
H       -1.960508       -1.393553        0.077154
C        1.794863        0.098292       -0.056995
H        2.335564       -0.541118        0.766114
H        2.239533       -0.101140       -0.996434
H        1.866657        1.197400        0.117534
N        0.464654       -0.473476        0.087820
N       -0.404612        0.401952        0.011414
10
  Step 40: 40.0 fs
C       -1.844883       -0.002921       -0.029831
H       -2.409430        0.239658        0.833250
H       -2.287514        0.390976       -1.106408
H       -1.976435       -1.391720        0.083785
C        1.794955        0.094282       -0.056838
H        2.335801       -0.550401        0.770002
H        2.217522       -0.095367       -0.971723
H        1.875131        1.189916        0.119629
N        0.462658       -0.466568        0.085175
N       -0.402265        0.403915        0.008564
10
  Step 41: 41.0 fs
C       -1.841683       -0.010241       -0.025292
H       -2.424140        0.227443        0.810094
H       -2.279722        0.381180       -1.089891
H       -1.986994       -1.352896        0.081790
C        1.795703        0.090198       -0.052760
H        2.334410       -0.544687        0.759205
H        2.204731       -0.099601       -0.973024
H        1.880993        1.178086        0.124045
N        0.459276       -0.460069        0.081894
N       -0.400409        0.406724        0.005636
10
  Step 42: 42.0 fs
C       -1.838049       -0.021447       -0.023337
H       -2.446147        0.230680        0.800581
H       -2.263550        0.362167       -1.047198
H       -1.990801       -1.279407        0.071005
C        1.796997        0.086059       -0.045028
H        2.332347       -0.526119        0.735845
H        2.201499       -0.113685       -1.000641
H        1.884358        1.164167        0.130967
N        0.454744       -0.454264        0.078086
N       -0.399269        0.410595        0.002702
10
  Step 43: 43.0 fs
C       -1.834180       -0.036169       -0.023347
H       -2.472508        0.249266        0.802816
H       -2.241547        0.336500       -0.985622
H       -1.986766       -1.177574        0.051879
C        1.798952        0.081785       -0.035276
H        2.332617       -0.499832        0.705522
H        2.202665       -0.134180       -1.041867
H        1.885528        1.151230        0.140175
N        0.449326       -0.449408        0.073879
N       -0.399006        0.415714       -0.000167
10
  Step 44: 44.0 fs
C       -1.830254       -0.053106       -0.023795
H       -2.496572        0.280431        0.809989
H       -2.219192        0.309923       -0.919680
H       -1.975181       -1.065084        0.026349
C        1.801467        0.077471       -0.025650
H        2.340541       -0.473977        0.677323
H        2.202428       -0.156618       -1.081120
H        1.884878        1.142210        0.151015
N        0.443304       -0.445694        0.069405
N       -0.399722        0.422189       -0.002908
10
  Step 45: 45.0 fs
C       -1.825846       -0.068888       -0.022677
H       -2.511512        0.319365        0.815038
H       -2.205271        0.291968       -0.871377
H       -1.960240       -0.985362       -0.001366
C        1.804109        0.073452       -0.017993
H        2.362388       -0.457621        0.661308
H        2.197211       -0.177258       -1.107149
H        1.882727        1.138829        0.162499
N        0.436963       -0.443232        0.064793
N       -0.401467        0.430000       -0.005461
10
  Step 46: 46.0 fs
C       -1.820076       -0.078448       -0.018337
H       -2.512536        0.360240        0.813179
H       -2.207959        0.291845       -0.860403
H       -1.949861       -1.000171       -0.027264
C        1.806528        0.069967       -0.013260
H        2.400738       -0.455623        0.662396
H        2.185691       -0.193515       -1.114079
H        1.879304        1.140914        0.173487
N        0.430540       -0.442008        0.060164
N       -0.404226        0.438964       -0.007768
10
  Step 47: 47.0 fs
C       -1.813258       -0.081547       -0.010684
H       -2.497577        0.397704        0.802644
H       -2.227091        0.309678       -0.886917
H       -1.943872       -1.105349       -0.051038
C        1.808876        0.066862       -0.011273
H        2.450455       -0.465241        0.676396
H        2.168193       -0.203892       -1.100490
H        1.874823        1.146480        0.182880
N        0.424186       -0.441889        0.055619
N       -0.407855        0.448792       -0.009767
10
  Step 48: 48.0 fs
C       -1.806803       -0.082342       -0.001504
H       -2.467319        0.428025        0.784552
H       -2.253927        0.335813       -0.932480
H       -1.935447       -1.236525       -0.071325
C        1.811626        0.063796       -0.011113
H        2.501417       -0.479417        0.694173
H        2.146395       -0.207988       -1.068969
H        1.869573        1.152460        0.189789
N        0.417970       -0.442632        0.051244
N       -0.412101        0.459106       -0.011400
10
  Step 49: 49.0 fs
C       -1.801626       -0.083273        0.007060
H       -2.425212        0.449605        0.762541
H       -2.278987        0.359515       -0.977447
H       -1.921669       -1.350565       -0.085880
C        1.815101        0.060585       -0.011577
H        2.544002       -0.491647        0.707689
H        2.123425       -0.206755       -1.026739
H        1.863968        1.155789        0.193638
N        0.411899       -0.443919        0.047109
N       -0.416673        0.469444       -0.012626
10
  Step 50: 50.0 fs
C       -1.797866       -0.085161        0.013375
H       -2.377364        0.463395        0.742636
H       -2.296309        0.373811       -1.009470
H       -1.902632       -1.429690       -0.093292
C        1.819255        0.057299       -0.011305
H        2.571744       -0.497899        0.712210
H        2.103895       -0.202794       -0.986342
H        1.858503        1.154340        0.194214
N        0.405956       -0.445403        0.043269
N       -0.421277        0.479306       -0.013433
10
  Step 51: 51.0 fs
C       -1.795191       -0.088366        0.016288
H       -2.331554        0.472616        0.732480
H       -2.303175        0.375237       -1.022513
H       -1.879333       -1.467466       -0.092867
C        1.823724        0.054171       -0.008924
H        2.581567       -0.496546        0.706136
H        2.093007       -0.199867       -0.963624
H        1.853683        1.147539        0.191692
N        0.400124       -0.446751        0.039763
N       -0.425623        0.488215       -0.013841
10
  Step 52: 52.0 fs
C       -1.793180       -0.093131        0.015115
H       -2.294624        0.480795        0.738670
H       -2.298990        0.362627       -1.014464
H       -1.852913       -1.461791       -0.084333
C        1.828083        0.051349       -0.003723
H        2.573375       -0.488013        0.690433
H        2.093886       -0.200566       -0.969159
H        1.849944        1.136625        0.186629
N        0.394411       -0.447678        0.036621
N       -0.429435        0.495777       -0.013897
10
  Step 53: 53.0 fs
C       -1.791643       -0.099434        0.009885
H       -2.269205        0.488341        0.762635
H       -2.284761        0.336492       -0.986109
H       -1.824525       -1.412902       -0.067750
C        1.832024        0.048718        0.003602
H        2.550234       -0.474887        0.668726
H        2.105259       -0.203944       -0.999314
H        1.847590        1.124498        0.179897
N        0.388861       -0.447964        0.033858
N       -0.432461        0.501710       -0.013670
10
  Step 54: 54.0 fs
C       -1.790600       -0.106874        0.001503
H       -2.253400        0.491468        0.799327
H       -2.263456        0.299326       -0.941860
H       -1.795350       -1.324060       -0.043568
C        1.835196        0.046101        0.011218
H        2.518945       -0.462339        0.647701
H        2.122775       -0.206648       -1.039782
H        1.846783        1.114917        0.172491
N        0.383568       -0.447471        0.031479
N       -0.434500        0.505873       -0.013241
10
  Step 55: 55.0 fs
C       -1.789940       -0.114603       -0.008290
H       -2.243380        0.484787        0.840051
H       -2.241117        0.256554       -0.891966
H       -1.766555       -1.205915       -0.012703
C        1.837000        0.043590        0.017070
H        2.489616       -0.457869        0.636656
H        2.141954       -0.205720       -1.075774
H        1.847585        1.111003        0.165294
N        0.378660       -0.446144        0.029474
N       -0.435433        0.508271       -0.012698
10
  Step 56: 56.0 fs
C       -1.789140       -0.120705       -0.017115
H       -2.235947        0.464568        0.876399
H       -2.227946        0.217146       -0.854489
H       -1.738603       -1.087704        0.023877
C        1.836833        0.041519        0.019634
H        2.471456       -0.468255        0.643764
H        2.159598       -0.199793       -1.097244
H        1.850028        1.113836        0.158986
N        0.374290       -0.444013        0.027818
N       -0.435240        0.509046       -0.012134
10
  Step 57: 57.0 fs
C       -1.787607       -0.121081       -0.022778
H       -2.229383        0.430047        0.902205
H       -2.235533        0.190340       -0.849767
H       -1.709024       -1.028329        0.067585