10
  Step 0: 0.0 fs
C       -1.803706       -0.067740        0.000062
H       -2.311496        0.330679        0.889268
H       -2.311375        0.329968       -0.889478
H       -1.816426       -1.165813        0.000652
C        1.803672        0.067716        0.000027
H        2.310907       -0.329696        0.890023
H        2.312187       -0.330873       -0.888641
H        1.816236        1.165788       -0.000420
N        0.410952       -0.460075       -0.000156
N       -0.410926        0.460087       -0.000124
10
  Step 1: 1.0 fs
C       -1.796297       -0.061723       -0.006267
H       -2.371832        0.327708        0.937949
H       -2.321674        0.333874       -0.862559
H       -1.749963       -1.200623        0.048188
C        1.809213        0.073042        0.002355
H        2.248558       -0.330194        0.911420
H        2.366460       -0.355956       -0.941720
H        1.792569        1.114920        0.008654
N        0.401421       -0.456989       -0.003476
N       -0.409907        0.455220       -0.000612
10
  Step 2: 2.0 fs
C       -1.789441       -0.056560       -0.010678
H       -2.421372        0.319739        0.972587
H       -2.333957        0.337980       -0.841451
H       -1.686967       -1.223826        0.092582
C        1.814885        0.076144        0.003385
H        2.190592       -0.332080        0.934333
H        2.411424       -0.373999       -0.977925
H        1.770227        1.084916        0.016889
N        0.392480       -0.454441       -0.006924
N       -0.409244        0.451131       -0.001110
10
  Step 3: 3.0 fs
C       -1.783392       -0.052944       -0.012044
H       -2.453810        0.305368        0.986766
H       -2.349369        0.342148       -0.829980
H       -1.631215       -1.228704        0.130728
C        1.820653        0.075470        0.002633
H        2.140090       -0.335804        0.958805
H        2.442344       -0.381578       -0.989074
H        1.749769        1.091346        0.023723
N        0.384671       -0.452927       -0.010626
N       -0.409248        0.448530       -0.001635
10
  Step 4: 4.0 fs
C       -1.778380       -0.051198       -0.009966
H       -2.466022        0.285088        0.978742
H       -2.366915        0.345060       -0.828443
H       -1.586082       -1.213395        0.160087
C        1.826365        0.071247        0.000171
H        2.098810       -0.340632        0.983023
H        2.457304       -0.377623       -0.972258
H        1.732100        1.129775        0.028824
N        0.378412       -0.452812       -0.014693
N       -0.410119        0.447981       -0.002206
10
  Step 5: 5.0 fs
C       -1.774712       -0.051282       -0.004623
H       -2.457215        0.260487        0.949840
H       -2.383433        0.344268       -0.834015
H       -1.554133       -1.180128        0.178913
C        1.831707        0.065043       -0.003536
H        2.067570       -0.344971        1.003917
H        2.456473       -0.362847       -0.928357
H        1.719136        1.180547        0.031878
N        0.373953       -0.454243       -0.019225
N       -0.411884        0.449828       -0.002834
10
  Step 6: 6.0 fs
C       -1.772642       -0.052868        0.003351
H       -2.429206        0.234244        0.904605
H       -2.394965        0.337119       -0.842689
H       -1.536739       -1.135134        0.186413
C        1.836176        0.058520       -0.007670
H        2.046657       -0.347030        1.018345
H        2.442837       -0.340067       -0.862838
H        1.712745        1.224549        0.032686
N        0.371352       -0.457116       -0.024297
N       -0.414378        0.454157       -0.003525
10
  Step 7: 7.0 fs
C       -1.772133       -0.055387        0.012844
H       -2.387964        0.210668        0.852656
H       -2.398300        0.321693       -0.851048
H       -1.533486       -1.089262        0.182972
C        1.838947        0.053042       -0.010928
H        2.036010       -0.345389        1.024177
H        2.424401       -0.315402       -0.788498
H        1.713900        1.249772        0.031202
N        0.370480       -0.461099       -0.029964
N       -0.417268        0.460789       -0.004277
10
  Step 8: 8.0 fs
C       -1.772602       -0.058142        0.022084
H       -2.345822        0.196468        0.811368
H       -2.391820        0.297348       -0.856984
H       -1.541797       -1.057527        0.170218
C        1.838673        0.049866       -0.011404
H        2.035256       -0.339365        1.021088
H        2.416565       -0.299369       -0.727559
H        1.722640        1.250680        0.027531
N        0.371064       -0.465700       -0.036254
N       -0.420128        0.469308       -0.005080
10
  Step 9: 9.0 fs
C       -1.772955       -0.060604        0.028914
H       -2.319548        0.199741        0.803325
H       -2.375835        0.264979       -0.859840
H       -1.557902       -1.054430        0.150491
C        1.833973        0.049959       -0.007414
H        2.043754       -0.329228        1.011034
H        2.436390       -0.302859       -0.702365
H        1.738242        1.226672        0.021898
N        0.372746       -0.470345       -0.043157
N       -0.422524        0.479103       -0.005929
10
  Step 10: 10.0 fs
C       -1.772479       -0.062725        0.032345
H       -2.317443        0.224051        0.838997
H       -2.352657        0.227091       -0.860570
H       -1.579392       -1.084351        0.125835
C        1.825029        0.053069        0.000594
H        2.060734       -0.316289        0.998266
H        2.483734       -0.326049       -0.712735
H        1.759255        1.182108        0.014664
N        0.375150       -0.474456       -0.050620
N       -0.424086        0.489442       -0.006823
10
  Step 11: 11.0 fs
C       -1.771558       -0.064897        0.033707
H       -2.330430        0.263293        0.903159
H       -2.326381        0.187528       -0.861843
H       -1.606182       -1.136973        0.098027
C        1.813680        0.057562        0.010335
H        2.085440       -0.302644        0.988212
H        2.539932       -0.358397       -0.738228
H        1.783609        1.127892        0.006129
N        0.377942       -0.477512       -0.058538
N       -0.424545        0.499566       -0.007773
10
  Step 12: 12.0 fs
C       -1.770877       -0.067725        0.035165
H       -2.344322        0.306949        0.970947
H       -2.302026        0.150668       -0.867366
H       -1.638473       -1.194916        0.069438
C        1.801761        0.061170        0.019801
H        2.116911       -0.290347        0.985114
H        2.586827       -0.389721       -0.760566
H        1.809173        1.082660       -0.003825
N        0.380872       -0.479077       -0.066767
N       -0.423754        0.508769       -0.008782
10
  Step 13: 13.0 fs
C       -1.770822       -0.071718        0.038158
H       -2.350197        0.346551        1.024290
H       -2.283759        0.120201       -0.879821
H       -1.675171       -1.243278        0.043020
C        1.790465        0.061699        0.028036
H        2.153271       -0.280409        0.989937
H        2.614083       -0.414218       -0.770310
H        1.834714        1.067431       -0.016027
N        0.383775       -0.478824       -0.075145
N       -0.421691        0.516449       -0.009835
10
  Step 14: 14.0 fs
C       -1.771605       -0.077082        0.043128
H       -2.344487        0.376866        1.053579
H       -2.273286        0.098448       -0.898572
H       -1.714125       -1.272898        0.021692
C        1.780555        0.058278        0.034851
H        2.191332       -0.272444        1.000254
H        2.617231       -0.429448       -0.764001
H        1.859863        1.089531       -0.031244
N        0.386552       -0.476549       -0.083499
N       -0.418441        0.522150       -0.010907
10
  Step 15: 15.0 fs
C       -1.773424       -0.083712        0.049779
H       -2.326704        0.395017        1.054861
H       -2.269687        0.086342       -0.919339
H       -1.752803       -1.279813        0.007916
C        1.772706        0.051953        0.040350
H        2.226906       -0.265201        1.011981
H        2.595289       -0.435007       -0.741527
H        1.883347        1.134904       -0.048733
N        0.389130       -0.472188       -0.091665
N       -0.414162        0.525565       -0.011961
10
  Step 16: 16.0 fs
C       -1.776425       -0.091273        0.057406
H       -2.298294        0.399893        1.028131
H       -2.270698        0.083942       -0.936167
H       -1.788754       -1.264209        0.003499
C        1.767513        0.044509        0.044701
H        2.255737       -0.257312        1.021404
H        2.549947       -0.431943       -0.705207
H        1.902784        1.182322       -0.066408
N        0.391465       -0.465810       -0.099496
N       -0.409069        0.526542       -0.012963
10
  Step 17: 17.0 fs
C       -1.780573       -0.099257        0.065105
H       -2.262664        0.392444        0.977539
H       -2.274032        0.090785       -0.943889
H       -1.819853       -1.230335        0.009439
C        1.765196        0.037463        0.048214
H        2.274338       -0.247788        1.026334
H        2.486580       -0.423243       -0.660613
H        1.916074        1.216215       -0.082090
N        0.393551       -0.457611       -0.106859
N       -0.403436        0.525078       -0.013874
10
  Step 18: 18.0 fs
C       -1.785501       -0.107027        0.071717
H       -2.226103        0.377093        0.913409
H       -2.278025        0.105977       -0.939410
H       -1.844567       -1.187435        0.025762
C        1.765284        0.032050        0.051553
H        2.280602       -0.236288        1.026498
H        2.416516       -0.415357       -0.618747
H        1.922126        1.228493       -0.094239
N        0.395446       -0.447916       -0.113643
N       -0.397591        0.521324       -0.014651
10
  Step 19: 19.0 fs
C       -1.790366       -0.113956        0.075639
H       -2.198942        0.363932        0.854966
H       -2.281798        0.128181       -0.922160
H       -1.862309       -1.150269        0.051472
C        1.766517        0.029512        0.055861
H        2.274126       -0.223227        1.023364
H        2.357795       -0.419422       -0.597174
H        1.920842        1.216454       -0.102094
N        0.397281       -0.437182       -0.119754
N       -0.391936        0.515595       -0.015241
10
  Step 20: 20.0 fs
C       -1.794015       -0.119600        0.075099
H       -2.193336        0.367335        0.826478
H       -2.285305        0.155625       -0.894166
H       -1.873548       -1.135744        0.085044
C        1.767625        0.030780        0.062073
H        2.256266       -0.209827        1.019778
H        2.326125       -0.446153       -0.611481
H        1.912961        1.181603       -0.105662
N        0.399251       -0.426000       -0.125118
N       -0.386939        0.508364       -0.015573
10
  Step 21: 21.0 fs
C       -1.795858       -0.123581        0.069705
H       -2.213381        0.394014        0.838236
H       -2.289484        0.186361       -0.860109
H       -1.879208       -1.152717        0.125102
C        1.768618        0.035407        0.069475
H        2.229941       -0.198068        1.019677
H        2.319771       -0.493561       -0.657590
H        1.900031        1.130141       -0.105817
N        0.401603       -0.415073       -0.129694
N       -0.383128        0.500241       -0.015562
10
  Step 22: 22.0 fs
C       -1.796407       -0.125608        0.061360
H       -2.249524        0.434249        0.875882
H       -2.296367        0.218734       -0.826825
H       -1.879781       -1.193528        0.169817
C        1.770315        0.041454        0.076093
H        2.198938       -0.190337        1.027291
H        2.325123       -0.547921       -0.714883
H        1.884611        1.074947       -0.104715
N        0.404622       -0.405174       -0.133480
N       -0.381037        0.491936       -0.015123
10
  Step 23: 23.0 fs
C       -1.796484       -0.125906        0.052691
H       -2.288267        0.473141        0.918378
H       -2.308505        0.251593       -0.801361
H       -1.875482       -1.240236        0.215747
C        1.773186        0.046407        0.080425
H        2.166553       -0.188496        1.045142
H        2.331431       -0.596130       -0.764487
H        1.870273        1.036071       -0.106092
N        0.408584       -0.397044       -0.136517
N       -0.381132        0.484149       -0.014182
10
  Step 24: 24.0 fs
C       -1.796638       -0.125001        0.045588
H       -2.320049        0.500640        0.951770
H       -2.327375        0.283613       -0.787883
H       -1.866885       -1.276429        0.258439
C        1.777304        0.048117        0.082001
H        2.134489       -0.192887        1.071992
H        2.333736       -0.630262       -0.795335
H        1.860463        1.032904       -0.113828
N        0.413657       -0.391265       -0.138875
N       -0.383727        0.477450       -0.012689
10
  Step 25: 25.0 fs
C       -1.797239       -0.123261        0.040931
H       -2.339691        0.512031        0.969288
H       -2.351893        0.312304       -0.785840
H       -1.854975       -1.292048        0.293823
C        1.782701        0.046086        0.080906
H        2.103034       -0.202144        1.102798
H        2.330608       -0.646524       -0.802236
H        1.856664        1.067436       -0.128276
N        0.419799       -0.388150       -0.140630
N       -0.388896        0.472173       -0.010641
10
  Step 26: 26.0 fs
C       -1.798613       -0.120754        0.038867
H       -2.344891        0.505963        0.968520
H       -2.378563        0.334060       -0.791079
H       -1.840971       -1.283097        0.318895
C        1.789422        0.041590        0.077338
H        2.072068       -0.213857        1.130780
H        2.322549       -0.643868       -0.783768
H        1.858441        1.121868       -0.145350
N        0.426715       -0.387691       -0.141842
N       -0.396426        0.468379       -0.008089
10
  Step 27: 27.0 fs
C       -1.801014       -0.117359        0.039161
H       -2.335312        0.483297        0.949792
H       -2.403092        0.345325       -0.798637
H       -1.826151       -1.250403        0.331867
C        1.797357        0.036340        0.071647
H        2.041881       -0.225496        1.149895
H        2.311653       -0.623640       -0.741735
H        1.864847        1.174967       -0.160068
N        0.433889       -0.389583       -0.142556
N       -0.405837        0.465888       -0.005134
10
  Step 28: 28.0 fs
C       -1.804516       -0.112858        0.041342
H       -2.312654        0.447157        0.916296
H       -2.421846        0.343631       -0.804713
H       -1.811736       -1.199554        0.332295
C        1.806085        0.031780        0.064550
H        2.013367       -0.234944        1.156236
H        2.302462       -0.590730       -0.682567
H        1.875059        1.212240       -0.169074
N        0.440663       -0.393318       -0.142811
N       -0.416430        0.464363       -0.001916
10
  Step 29: 29.0 fs
C       -1.808889       -0.106968        0.044588
H       -2.281593        0.403910        0.875646
H       -2.432587        0.328106       -0.807355
H       -1.798714       -1.142031        0.321448
C        1.814724        0.029293        0.057298
H        1.987880       -0.240725        1.148709
H        2.303704       -0.555815       -0.619794
H        1.888405        1.226256       -0.170816
N        0.446356       -0.398315       -0.142658
N       -0.427394        0.463428        0.001410
10
  Step 30: 30.0 fs
C       -1.813485       -0.099427        0.047498
H       -2.251112        0.364383        0.842391
H       -2.434765        0.299633       -0.806513
H       -1.787524       -1.095385        0.302495
C        1.821916        0.030402        0.051553
H        1.966934       -0.242104        1.129287
H        2.328609       -0.535429       -0.573343
H        1.904293        1.214572       -0.165020
N        0.450377       -0.404039       -0.142181
N       -0.437910        0.462748        0.004695
10
  Step 31: 31.0 fs
C       -1.817326       -0.090273        0.048304
H       -2.233348        0.342005        0.836541
H       -2.429623        0.260886       -0.803925
H       -1.777910       -1.077989        0.279286
C        1.826588        0.035944        0.048243
H        1.951948       -0.239183        1.103079
H        2.386283       -0.541188       -0.556267
H        1.922127        1.179073       -0.152366
N        0.452286       -0.410051       -0.141486
N       -0.447227        0.462073        0.007798
10
  Step 32: 32.0 fs
C       -1.819721       -0.080097        0.046271
H       -2.235539        0.343596        0.869462
H       -2.420178        0.216173       -0.803078
H       -1.769484       -1.096520        0.253690
C        1.829102        0.044831        0.046408
H        1.944106       -0.233056        1.077801
H        2.468459       -0.566231       -0.560807
H        1.941404        1.127054       -0.134602
N        0.451813       -0.416026       -0.140689
N       -0.454722        0.461252        0.010594
10
  Step 33: 33.0 fs
C       -1.820797       -0.069893        0.042883
H       -2.253101        0.362470        0.929757
H       -2.410797        0.170751       -0.808744
H       -1.762561       -1.139841        0.225113
C        1.830707        0.054556        0.044399
H        1.944249       -0.225617        1.061673
H        2.555833       -0.594212       -0.570271
H        1.962228        1.073644       -0.115042
N        0.448873       -0.421715       -0.139886
N       -0.459943        0.460214        0.012976
10
  Step 34: 34.0 fs
C       -1.821090       -0.060744        0.040466
H       -2.276148        0.386467        0.994630
H       -2.405395        0.129372       -0.824736
H       -1.757902       -1.189193        0.193132
C        1.832310        0.062265        0.041359
H        1.952563       -0.218628        1.059744
H        2.632255       -0.613156       -0.573480
H        1.985988        1.041662       -0.098423
N        0.443581       -0.426927       -0.139147
N       -0.462647        0.458943        0.014870
10
  Step 35: 35.0 fs
C       -1.821135       -0.053495        0.040445
H       -2.297166        0.406500        1.045985
H       -2.405071        0.095095       -0.850728
H       -1.756055       -1.229254        0.158885
C        1.834305        0.065813        0.037333
H        1.968245       -0.212615        1.071345
H        2.688165       -0.617435       -0.565855
H        2.014404        1.049988       -0.088552
N        0.436214       -0.431515       -0.138507
N       -0.462793        0.457462        0.016244
10
  Step 36: 36.0 fs
C       -1.821454       -0.048638        0.043048
H       -2.312087        0.417684        1.073723
H       -2.407496        0.069457       -0.881565
H       -1.757134       -1.251054        0.124583
C        1.837058        0.065160        0.032729
H        1.989439       -0.206660        1.090921
H        2.718663       -0.605451       -0.546632
H        2.046065        1.094898       -0.085468
N        0.427171       -0.435406       -0.137983
N       -0.460508        0.455835        0.017111
10
  Step 37: 37.0 fs
C       -1.822506       -0.046368        0.047785
H       -2.319118        0.417931        1.073524
H       -2.408800        0.053366       -0.909865
H       -1.760935       -1.250825        0.092765
C        1.841063        0.061968        0.028044
H        2.013597       -0.199130        1.111116
H        2.722044       -0.578158       -0.517288
H        2.075901        1.154343       -0.086644
N        0.416933       -0.438619       -0.137582
N       -0.456056        0.454177        0.017525
10
  Step 38: 38.0 fs
C       -1.824560       -0.046666        0.053892
H       -2.318092        0.407038        1.045264
H       -2.405716        0.047559       -0.929285
H       -1.767064       -1.228797        0.065913
C        1.846592        0.058042        0.023847
H        2.037981       -0.188512        1.125649
H        2.699888       -0.538809       -0.481339
H        2.098719        1.207207       -0.089713
N        0.406049       -0.441264       -0.137308
N       -0.449808        0.452656        0.017566
10
  Step 39: 39.0 fs
C       -1.827601       -0.049306        0.060468
H       -2.310663        0.386727        0.993157
H       -2.396466        0.052569       -0.935994
H       -1.774976       -1.189107        0.046196
C        1.853333        0.054825        0.020817
H        2.060102       -0.173898        1.130664
H        2.658973       -0.494042       -0.445227
H        2.111206        1.240775       -0.093303
N        0.395117       -0.443529       -0.137174
N       -0.442223        0.451493        0.017343
10
  Step 40: 40.0 fs
C       -1.831235       -0.053842        0.066376
H       -2.301372        0.361596        0.927592
H       -2.380891        0.068607       -0.929126
H       -1.783925       -1.140750        0.035185
C        1.860107        0.053690        0.019828
H        2.078052       -0.155193        1.125136
H        2.614436       -0.455714       -0.419827
H        2.111837        1.249329       -0.096847
N        0.384760       -0.445669       -0.137192
N       -0.433834        0.450946        0.016987
10
  Step 41: 41.0 fs
C       -1.834587       -0.059626        0.070089
H       -2.299124        0.340412        0.867327
H       -2.360251        0.095445       -0.910771
H       -1.792912       -1.098557        0.033430
C        1.865036        0.056027        0.021848
H        2.090804       -0.133202        1.110733
H        2.588314       -0.439678       -0.419352
H        2.100336        1.231906       -0.100368
N        0.375586       -0.447972       -0.137369
N       -0.425222        0.451276        0.016649
10
  Step 42: 42.0 fs
C       -1.836456       -0.065871        0.070064
H       -2.315426        0.334305        0.835035
H       -2.336950        0.132341       -0.885820
H       -1.800914       -1.080517        0.040298
C        1.866975        0.062338        0.027128
H        2.098443       -0.109649        1.091620
H        2.592733       -0.454552       -0.451541
H        2.077418        1.191819       -0.104458
N        0.368118       -0.450704       -0.137690
N       -0.416960        0.452697        0.016488
10
  Step 43: 43.0 fs
C       -1.836156       -0.071757        0.066134
H       -2.354403        0.347789        0.839750
H       -2.314243        0.178121       -0.861428
H       -1.807511       -1.097667        0.054474
C        1.866715        0.071238        0.034404
H        2.102244       -0.087066        1.074120
H        2.615447       -0.491303       -0.507635
H        2.044917        1.138030       -0.110551
N        0.362752       -0.454048       -0.138105
N       -0.409551        0.455316        0.016655
10
  Step 44: 44.0 fs
C       -1.834126       -0.076848        0.060055
H       -2.406080        0.373272        0.868288
H       -2.295507        0.231258       -0.845096
H       -1.813296       -1.143837        0.074338
C        1.865562        0.080071        0.041772
H        2.104418       -0.068279        1.065435
H        2.636101       -0.533374       -0.570753
H        2.006125        1.087509       -0.121497
N        0.359744       -0.458058       -0.138529
N       -0.403359        0.459095        0.017271
10
  Step 45: 45.0 fs
C       -1.831319       -0.081349        0.053881
H       -2.455713        0.399360        0.901373
H       -2.282693        0.289368       -0.840910
H       -1.819289       -1.200531        0.097492
C        1.864132        0.085973        0.047920
H        2.107161       -0.055331        1.070426
H        2.641909       -0.568264       -0.627243
H        1.965065        1.063308       -0.141584
N        0.359197       -0.462643       -0.138847
N       -0.398570        0.463820        0.018414
10
  Step 46: 46.0 fs
C       -1.828598       -0.085580        0.048732
H       -2.492618        0.418027        0.925952
H       -2.275234        0.348341       -0.847165
H       -1.826183       -1.249550        0.120785
C        1.862623        0.087192        0.052357
H        2.111600       -0.048504        1.088508
H        2.627930       -0.589087       -0.668894
H        1.924045        1.079541       -0.173887
N        0.361036       -0.467575       -0.138918
N       -0.395193        0.469112        0.020121
10
  Step 47: 47.0 fs
C       -1.826599       -0.089546        0.044836
H       -2.511146        0.425219        0.935637
H       -2.270727        0.402496       -0.857985
H       -1.834152       -1.279041        0.141134
C        1.861187        0.084264        0.054913
H        2.117480       -0.046371        1.113674
H        2.593759       -0.592877       -0.691438
H        1.883105        1.125761       -0.215779
N        0.365030       -0.472521       -0.138589
N       -0.393105        0.474465        0.022383
10
  Step 48: 48.0 fs
C       -1.825706       -0.092969        0.042023
H       -2.509095        0.419526        0.928248
H       -2.266605        0.446096       -0.867175
H       -1.843003       -1.283480        0.156018
C        1.859808        0.079017        0.055466
H        2.123702       -0.046759        1.137564
H        2.541725       -0.579348       -0.693408
H        1.842743        1.178218       -0.259929
N        0.370836       -0.477081       -0.137708
N       -0.392099        0.479323        0.025160
10
  Step 49: 49.0 fs
C       -1.826032       -0.095453        0.040009
H       -2.486813        0.401481        0.904579
H       -2.261153        0.474682       -0.870537
H       -1.852351       -1.262372        0.163597
C        1.858164        0.073129        0.054104
H        2.129107       -0.047685        1.152808
H        2.476951       -0.551003       -0.676525
H        1.804738        1.217910       -0.299158
N        0.378045       -0.480838       -0.136130
N       -0.391935        0.483145        0.028386
10
  Step 50: 50.0 fs
C       -1.827385       -0.096582        0.038425
H       -2.447334        0.373727        0.868644
H       -2.253766        0.485744       -0.866479
H       -1.861728       -1.220032        0.162726
C        1.855565        0.067925        0.051335
H        2.132918       -0.047764        1.154646
H        2.408639       -0.514560       -0.647649
H        1.771180        1.234812       -0.328620
N        0.386218       -0.483410       -0.133734
N       -0.392361        0.485464        0.031987
10
  Step 51: 51.0 fs
C       -1.829175       -0.095917        0.036662
H       -2.397493        0.341933        0.829262
H       -2.244925        0.478931       -0.855906
H       -1.870657       -1.166680        0.153085
C        1.850867        0.064793        0.048263
H        2.134970       -0.046267        1.141537
H        2.351546       -0.483071       -0.621648
H        1.743870        1.225300       -0.345622
N        0.394900       -0.484509       -0.130426
N       -0.393137        0.485925        0.035885
10
  Step 52: 52.0 fs
C       -1.830324       -0.093030        0.033687
H       -2.348903        0.315612        0.801855
H       -2.236204        0.456280       -0.842073
H       -1.878815       -1.119016        0.135343
C        1.842764        0.065130        0.046296
H        2.135812       -0.043065        1.115417
H        2.322564       -0.473217       -0.618491
H        1.724102        1.190236       -0.349190
N        0.403647       -0.483976       -0.126150
N       -0.394045        0.484307        0.040008
10
  Step 53: 53.0 fs
C       -1.829525       -0.087639        0.028375
H       -2.314690        0.305489        0.804765
H       -2.230345        0.422406       -0.830462
H       -1.886145       -1.096145        0.110891
C        1.830880        0.069176        0.045667
H        2.136803       -0.038589        1.081899
H        2.327772       -0.491315       -0.645872
H        1.712467        1.134959       -0.340105
N        0.412038       -0.481809       -0.120883
N       -0.394903        0.480531        0.044275
10
  Step 54: 54.0 fs
C       -1.826104       -0.079896        0.020795
H       -2.299637        0.315086        0.844387
H       -2.231183        0.384248       -0.828399
H       -1.892580       -1.107474        0.081051
C        1.816289        0.075204        0.044758
H        2.140162       -0.033818        1.049674
H        2.356328       -0.525709       -0.689466
H        1.708539        1.071293       -0.321832
N        0.419707       -0.478165       -0.114645
N       -0.395573        0.474670        0.048601
10
  Step 55: 55.0 fs
C       -1.820464       -0.070631        0.012727
H       -2.296650        0.337094        0.906466
H       -2.242389        0.349019       -0.842444
H       -1.897465       -1.144225        0.046983
C        1.800511        0.080405        0.041915
H        2.148367       -0.030051        1.027547
H        2.392819       -0.560381       -0.730103
H        1.710650        1.020263       -0.301936
N        0.426376       -0.473354       -0.107501
N       -0.395980        0.466955        0.052886
10
  Step 56: 56.0 fs
C       -1.813499       -0.061011        0.006029
H       -2.296005        0.361195        0.969513
H       -2.264839        0.320852       -0.873303
H       -1.899649       -1.187958        0.010545
C        1.784848        0.081963        0.036740
H        2.162610       -0.028329        1.019745
H        2.426076       -0.584789       -0.756032
H        1.716592        1.008172       -0.290584
N        0.431865       -0.467804       -0.099563
N       -0.396134        0.457768        0.057039
10
  Step 57: 57.0 fs
C       -1.806162       -0.051939        0.001359
H       -2.291629        0.380127        1.017478
H       -2.294883        0.299764       -0.913505
H       -1.898132       -1.222723       -0.025693