10
  Step 0: 0.0 fs
C       -1.803709       -0.067742        0.000072
H       -2.311477        0.330672        0.889274
H       -2.311378        0.329969       -0.889462
H       -1.816437       -1.165807        0.000651
C        1.803674        0.067714        0.000031
H        2.310866       -0.329680        0.890063
H        2.312219       -0.330901       -0.888605
H        1.816238        1.165791       -0.000432
N        0.410953       -0.460071       -0.000171
N       -0.410927        0.460087       -0.000128
10
  Step 1: 1.0 fs
C       -1.807198       -0.079792        0.009388
H       -2.270949        0.317723        0.867698
H       -2.258921        0.339843       -0.945953
H       -1.803562       -1.063534        0.003658
C        1.794770        0.057792        0.010682
H        2.280613       -0.329978        0.852607
H        2.320398       -0.316093       -0.927354
H        1.795447        1.162018       -0.035308
N        0.421849       -0.454589       -0.002811
N       -0.415735        0.465524       -0.001202
10
  Step 2: 2.0 fs
C       -1.810008       -0.087735        0.016785
H       -2.239935        0.311685        0.857295
H       -2.206021        0.345730       -0.991773
H       -1.790916       -1.012679        0.006175
C        1.785808        0.048672        0.019026
H        2.259837       -0.336304        0.830144
H        2.323812       -0.299735       -0.956777
H        1.775604        1.156745       -0.067403
N        0.431947       -0.449027       -0.005413
N       -0.420015        0.470594       -0.002179
10
  Step 3: 3.0 fs
C       -1.811570       -0.088213        0.020884
H       -2.225633        0.317964        0.866755
H       -2.154305        0.345018       -1.019822
H       -1.777584       -1.055638        0.007492
C        1.776743        0.041165        0.023375
H        2.256021       -0.353297        0.833959
H        2.319906       -0.282065       -0.971192
H        1.757790        1.148950       -0.093957
N        0.440482       -0.443374       -0.007941
N       -0.423315        0.474989       -0.002974
10
  Step 4: 4.0 fs
C       -1.811588       -0.083858        0.021380
H       -2.229211        0.336401        0.894936
H       -2.106839        0.336920       -1.027363
H       -1.764283       -1.159835        0.008336
C        1.768088        0.035541        0.023554
H        2.268274       -0.379190        0.861366
H        2.308175       -0.264581       -0.968623
H        1.743054        1.138854       -0.112544
N        0.446777       -0.437694       -0.010357
N       -0.425269        0.478486       -0.003503
10
  Step 5: 5.0 fs
C       -1.810051       -0.078776        0.019117
H       -2.245989        0.361096        0.930453
H       -2.067358        0.322143       -1.015732
H       -1.753334       -1.270729        0.010058
C        1.760816        0.031539        0.020663
H        2.288461       -0.406761        0.898321
H        2.289920       -0.249582       -0.950479
H        1.732272        1.128088       -0.121332
N        0.450287       -0.432116       -0.012616
N       -0.425649        0.480931       -0.003678
10
  Step 6: 6.0 fs
C       -1.807134       -0.074967        0.015565
H       -2.269330        0.384700        0.959470
H       -2.039901        0.302750       -0.990552
H       -1.746059       -1.358371        0.013320
C        1.755742        0.028811        0.016184
H        2.307754       -0.428726        0.930474
H        2.268341       -0.239966       -0.921745
H        1.726081        1.119201       -0.119225
N        0.450671       -0.426826       -0.014669
N       -0.424393        0.482249       -0.003412
10
  Step 7: 7.0 fs
C       -1.802980       -0.073192        0.012310
H       -2.293650        0.401728        0.971998
H       -2.028516        0.282178       -0.961868
H       -1.742736       -1.410815        0.018191
C        1.753173        0.027187        0.011544
H        2.320122       -0.440519        0.948596
H        2.248552       -0.239031       -0.891091
H        1.724877        1.114737       -0.105936
N        0.447834       -0.422044       -0.016472
N       -0.421600        0.482472       -0.002626
10
  Step 8: 8.0 fs
C       -1.797658       -0.073839        0.010778
H       -2.315110        0.409114        0.963066
H       -2.036612        0.264601       -0.942154
H       -1.743155       -1.423946        0.024526
C        1.752915        0.026698        0.008033
H        2.322476       -0.440298        0.948517
H        2.236756       -0.249948       -0.869557
H        1.728878        1.116147       -0.082042
N        0.441967       -0.418013       -0.017997
N       -0.417522        0.481763       -0.001276
10
  Step 9: 9.0 fs
C       -1.791266       -0.077094        0.011748
H       -2.331535        0.405872        0.932177
H       -2.065508        0.252742       -0.939945
H       -1.746871       -1.397021        0.032193
C        1.754573        0.027462        0.006472
H        2.314080       -0.428392        0.930066
H        2.237291       -0.274197       -0.865383
H        1.738144        1.123018       -0.049056
N        0.433535       -0.415001       -0.019240
N       -0.412559        0.480430        0.000640
10
  Step 10: 10.0 fs
C       -1.784078       -0.082822        0.014837
H       -2.342458        0.392954        0.882869
H       -2.112595        0.245837       -0.953422
H       -1.753233       -1.331898        0.041170
C        1.757860        0.029524        0.006740
H        2.296465       -0.407197        0.896874
H        2.249373       -0.309644       -0.878200
H        1.752514        1.133159       -0.009433
N        0.423246       -0.413306       -0.020225
N       -0.407248        0.478915        0.003080
10
  Step 11: 11.0 fs
C       -1.776539       -0.090490        0.018624
H       -2.349726        0.373701        0.822951
H       -2.171187        0.240443       -0.972322
H       -1.761263       -1.235155        0.051539
C        1.762559        0.032835        0.007736
H        2.273999       -0.381654        0.857248
H        2.267564       -0.350551       -0.899628
H        1.771478        1.143509        0.033617
N        0.411983       -0.413241       -0.021000
N       -0.402211        0.477758        0.005978
10
  Step 12: 12.0 fs
C       -1.769038       -0.098824        0.021318
H       -2.358039        0.354154        0.764060
H       -2.232825        0.232945       -0.985814
H       -1.769520       -1.124797        0.063534
C        1.768241        0.037404        0.007818
H        2.254233       -0.359462        0.824569
H        2.285458       -0.389915       -0.919433
H        1.794115        1.151263        0.076504
N        0.400691       -0.415089       -0.021623
N       -0.398080        0.477515        0.009259
10
  Step 13: 13.0 fs
C       -1.761766       -0.104825        0.021322
H       -2.373950        0.341914        0.718924
H       -2.289744        0.220916       -0.987248
H       -1.776330       -1.041833        0.078188
C        1.774262        0.043286        0.005450
H        2.245667       -0.349212        0.813651
H        2.298422       -0.421760       -0.930137
H        1.819186        1.154702        0.115740
N        0.390246       -0.419018       -0.022157
N       -0.395415        0.478630        0.012848
10
  Step 14: 14.0 fs
C       -1.754906       -0.104212        0.017658
H       -2.401455        0.342220        0.695441
H       -2.336000        0.203171       -0.974521
H       -1.780999       -1.041073        0.098407
C        1.780262        0.050222        0.000092
H        2.251646       -0.355182        0.830574
H        2.304135       -0.442038       -0.927939
H        1.845355        1.153510        0.148378
N        0.381331       -0.425005       -0.022659
N       -0.394600        0.481325        0.016675
10
  Step 15: 15.0 fs
C       -1.749078       -0.097051        0.010537
H       -2.437640        0.354467        0.692904
H       -2.367752        0.179767       -0.949186
H       -1.783347       -1.121051        0.125226
C        1.786460        0.057400       -0.007342
H        2.267100       -0.374057        0.866654
H        2.302320       -0.448761       -0.912410
H        1.871405        1.148626        0.172321
N        0.374366       -0.432764       -0.023178
N       -0.395737        0.485551        0.020659
10
  Step 16: 16.0 fs
C       -1.745337       -0.087641        0.001369
H       -2.473855        0.373285        0.704580
H       -2.383456        0.151896       -0.915720
H       -1.782331       -1.226554        0.154308
C        1.793216        0.063827       -0.015207
H        2.283678       -0.398623        0.906618
H        2.294634       -0.442145       -0.886316
H        1.896365        1.141790        0.186487
N        0.369500       -0.441752       -0.023740
N       -0.398638        0.490998        0.024701
10
  Step 17: 17.0 fs
C       -1.744511       -0.078974       -0.008095
H       -2.500733        0.392393        0.722662
H       -2.384416        0.121590       -0.881332
H       -1.777530       -1.317693        0.181087
C        1.800558        0.068794       -0.021882
H        2.295067       -0.422408        0.938014
H        2.284849       -0.425020       -0.855950
H        1.919497        1.135132        0.190767
N        0.366660       -0.451238       -0.024352
N       -0.402917        0.497127        0.028686
10
  Step 18: 18.0 fs
C       -1.746782       -0.072309       -0.016209
H       -2.511876        0.407189        0.741123
H       -2.375309        0.091479       -0.855875
H       -1.769375       -1.377280        0.202980
C        1.808108        0.072041       -0.025952
H        2.298055       -0.441090        0.953578
H        2.278752       -0.402934       -0.831108
H        1.940201        1.130735        0.185808
N        0.365617       -0.460418       -0.025006
N       -0.408105        0.503276        0.032493
10
  Step 19: 19.0 fs
C       -1.751737       -0.068142       -0.021514
H       -2.504526        0.415143        0.755952
H       -2.363337        0.064209       -0.850334
H       -1.758647       -1.399241        0.218719
C        1.815283        0.073644       -0.026303
H        2.291801       -0.452241        0.950287
H        2.282637       -0.382616       -0.822683
H        1.957896        1.130234        0.172750
N        0.366066       -0.468521       -0.025694
N       -0.413721        0.508784        0.035999
10
  Step 20: 20.0 fs
C       -1.758798       -0.066654       -0.023089
H       -2.479039        0.415416        0.764712
H       -2.354155        0.041425       -0.871684
H       -1.746226       -1.382139        0.227697
C        1.821669        0.073693       -0.022542
H        2.277183       -0.455004        0.928396
H        2.299537       -0.368047       -0.836420
H        1.971935        1.134390        0.152975
N        0.367671       -0.474879       -0.026413
N       -0.419309        0.513067        0.039092
10
  Step 21: 21.0 fs
C       -1.767635       -0.067855       -0.021017
H       -2.438649        0.408784        0.766624
H       -2.347550        0.023397       -0.917217
H       -1.733033       -1.327099        0.229748
C        1.827273        0.072118       -0.015415
H        2.256765       -0.450290        0.891592
H        2.326352       -0.357744       -0.867991
H        1.981598        1.142680        0.127950
N        0.370098       -0.478966       -0.027166
N       -0.424452        0.515671        0.041676
10
  Step 22: 22.0 fs
C       -1.778040       -0.071627       -0.016413
H       -2.389763        0.398066        0.763459
H       -2.338599        0.009783       -0.975263
H       -1.720008       -1.238566        0.225291
C        1.832280        0.068981       -0.006626
H        2.235326       -0.441632        0.848164
H        2.355969       -0.347230       -0.906296
H        1.986180        1.153117        0.099210
N        0.373046       -0.480428       -0.027967
N       -0.428790        0.516303        0.043678
10
  Step 23: 23.0 fs
C       -1.789554       -0.077467       -0.011007
H       -2.341768        0.388551        0.760383
H       -2.322503        0.000361       -1.031743
H       -1.707875       -1.128514        0.216100
C        1.836653        0.064839        0.001635
H        2.220183       -0.435949        0.811819
H        2.381438       -0.332923       -0.940230
H        1.985154        1.162628        0.068519
N        0.376258       -0.479099       -0.028830
N       -0.432038        0.514849        0.045044
10
  Step 24: 24.0 fs
C       -1.801466       -0.083624       -0.006799
H       -2.305098        0.387187        0.765003
H       -2.297302       -0.004948       -1.075371
H       -1.696058       -1.025824        0.207350
C        1.840082        0.060618        0.007284
H        2.219384       -0.441659        0.797987
H        2.398037       -0.313547       -0.962151
H        1.978360        1.168082        0.038008
N        0.379542       -0.475008       -0.029773
N       -0.434002        0.511366        0.045746
10
  Step 25: 25.0 fs
C       -1.813397       -0.086324       -0.005669
H       -2.286731        0.398932        0.782290
H       -2.263646       -0.006383       -1.099160
H       -1.680559       -0.981481        0.209532
C        1.842408        0.056916        0.009305
H        2.236372       -0.461875        0.812811
H        2.403438       -0.289814       -0.968341
H        1.966097        1.167469        0.010088
N        0.382777       -0.468368       -0.030806
N       -0.434594        0.506072        0.045778
10
  Step 26: 26.0 fs
C       -1.825331       -0.083088       -0.008223
H       -2.287108        0.422986        0.809595
H       -2.224014       -0.004258       -1.100544
H       -1.657625       -1.025309        0.229726
C        1.843937        0.053525        0.008254
H        2.266658       -0.490061        0.846926
H        2.397387       -0.263846       -0.958585
H        1.949098        1.160688       -0.012799
N        0.385931       -0.459559       -0.031934
N       -0.433827        0.499316        0.045166
10
  Step 27: 27.0 fs
C       -1.836677       -0.076710       -0.012853
H       -2.301827        0.453549        0.837973
H       -2.182346        0.001319       -1.081821
H       -1.633760       -1.119361        0.259487
C        1.845110        0.049877        0.005520
H        2.301885       -0.515698        0.884503
H        2.381728       -0.238888       -0.936180
H        1.928441        1.149595       -0.028457
N        0.389074       -0.449113       -0.033151
N       -0.431829        0.491547        0.043971
10
  Step 28: 28.0 fs
C       -1.846576       -0.070575       -0.017184
H       -2.325061        0.483431        0.857372
H       -2.143873        0.010411       -1.051000
H       -1.618139       -1.216700        0.287556
C        1.846090        0.045606        0.002572
H        2.334704       -0.530746        0.913002
H        2.360690       -0.219108       -0.908405
H        1.905414        1.137430       -0.035163
N        0.392369       -0.437696       -0.034437
N       -0.428891        0.483270        0.042292
10
  Step 29: 29.0 fs
C       -1.854361       -0.066248       -0.019078
H       -2.351837        0.506972        0.860593
H       -2.114545        0.023187       -1.021804
H       -1.615385       -1.293029        0.307946
C        1.846683        0.040715        0.000765
H        2.360212       -0.531095        0.925311
H        2.340596       -0.209076       -0.886126
H        1.881413        1.127707       -0.031895
N        0.396035       -0.426094       -0.035770
N       -0.425437        0.475036        0.040271
10
  Step 30: 30.0 fs
C       -1.859598       -0.064270       -0.016921
H       -2.378621        0.520882        0.844347
H       -2.099388        0.039925       -1.009420
H       -1.626716       -1.338499        0.318246
C        1.846545        0.035484        0.001163
H        2.375698       -0.515837        0.918798
H        2.327776       -0.212313       -0.880354
H        1.857904        1.122809       -0.018544
N        0.400323       -0.415153       -0.037127
N       -0.421965        0.467439        0.038067
10
  Step 31: 31.0 fs
C       -1.862160       -0.064838       -0.010305
H       -2.403400        0.524278        0.809277
H       -2.100004        0.060320       -1.020352
H       -1.651789       -1.349386        0.317726
C        1.845530        0.030321        0.004018
H        2.380382       -0.486636        0.894525
H        2.324600       -0.229181       -0.895168
H        1.836426        1.123021        0.003942
N        0.405457       -0.405703       -0.038483
N       -0.418963        0.461070        0.035851
10
  Step 32: 32.0 fs
C       -1.862226       -0.068018       -0.000405
H       -2.425878        0.518714        0.759750
H       -2.113700        0.082594       -1.046800
H       -1.689541       -1.324754        0.306568
C        1.843802        0.025673        0.008451
H        2.375834       -0.447838        0.857622
H        2.327804       -0.256084       -0.924265
H        1.818526        1.126624        0.033567
N        0.411574       -0.398467       -0.039809
N       -0.416836        0.456453        0.033783
10
  Step 33: 33.0 fs
C       -1.860064       -0.073809        0.010696
H       -2.447858        0.508347        0.703489
H       -2.135460        0.103835       -1.074163
H       -1.738282       -1.266186        0.285767
C        1.841483        0.022119        0.012763
H        2.367014       -0.406921        0.818393
H        2.331538       -0.287197       -0.955958
H        1.805552        1.130915        0.067516
N        0.418670       -0.393970       -0.041065
N       -0.415839        0.453955        0.032007
10
  Step 34: 34.0 fs
C       -1.855889       -0.081944        0.020911
H       -2.472940        0.499328        0.649782
H       -2.160186        0.121178       -1.090492
H       -1.795363       -1.180435        0.257628
C        1.838334        0.020398        0.015018
H        2.362504       -0.373860        0.791815
H        2.331030       -0.316881       -0.979961
H        1.798420        1.133480        0.102561
N        0.426551       -0.392477       -0.042194
N       -0.416031        0.453710        0.030634
10
  Step 35: 35.0 fs
C       -1.849991       -0.091100        0.028571
H       -2.504260        0.497350        0.606134
H       -2.183648        0.132554       -1.089521
H       -1.856951       -1.086660        0.227105
C        1.834019        0.021089        0.013788
H        2.370392       -0.357074        0.790794
H        2.323781       -0.340841       -0.989915
H        1.797488        1.133038        0.135539
N        0.434838       -0.393963       -0.043126
N       -0.417277        0.455576        0.029741
10
  Step 36: 36.0 fs
C       -1.842849       -0.097849        0.032543
H       -2.540979        0.504313        0.575057
H       -2.202718        0.136948       -1.070115
H       -1.919900       -1.025428        0.203100
C        1.828782        0.024136        0.009061
H        2.390531       -0.357811        0.815178
H        2.309452       -0.356376       -0.983535
H        1.802602        1.129665        0.163741
N        0.442992       -0.398142       -0.043789
N       -0.419302        0.459117        0.029374
10
  Step 37: 37.0 fs
C       -1.834875       -0.098234        0.032422
H       -2.577602        0.517805        0.555029
H       -2.215406        0.134511       -1.035143
H       -1.985751       -1.039527        0.194078
C        1.823490        0.028915        0.002160
H        2.414177       -0.370659        0.852013
H        2.289538       -0.362385       -0.962154
H        1.813254        1.124488        0.185186
N        0.450385       -0.404521       -0.044110
N       -0.421740        0.463682        0.029554
10
  Step 38: 38.0 fs
C       -1.826760       -0.093047        0.029130
H       -2.607046        0.533720        0.543554
H       -2.221160        0.126635       -0.991433
H       -2.053852       -1.114874        0.197930
C        1.818961        0.034741       -0.005192
H        2.431558       -0.388932        0.886658
H        2.267407       -0.359601       -0.930864
H        1.828695        1.119188        0.198719
N        0.456397       -0.412489       -0.044025
N       -0.424158        0.468555        0.030272
10
  Step 39: 39.0 fs
C       -1.819683       -0.085994        0.024334
H       -2.623411        0.548270        0.538880
H       -2.221373        0.115557       -0.949819
H       -2.115458       -1.204444        0.207304
C        1.815534        0.041174       -0.011393
H        2.436446       -0.407630        0.909205
H        2.248287       -0.350886       -0.898627
H        1.847981        1.115586        0.203975
N        0.460489       -0.421385       -0.043479
N       -0.426113        0.473070        0.031496
10
  Step 40: 40.0 fs
C       -1.814413       -0.079508        0.019655
H       -2.623055        0.558698        0.540061
H       -2.219463        0.103749       -0.923758
H       -2.162775       -1.277975        0.217550
C        1.813108        0.048026       -0.015076
H        2.426248       -0.423610        0.914714
H        2.238508       -0.340828       -0.877011
H        1.869975        1.115372        0.201212
N        0.462276       -0.430570       -0.042441
N       -0.427238        0.476661        0.033172
10
  Step 41: 41.0 fs
C       -1.811154       -0.074618        0.016275
H       -2.604866        0.563619        0.546619
H       -2.219104        0.093014       -0.924229
H       -2.191935       -1.322767        0.226565
C        1.811444        0.055161       -0.015410
H        2.401000       -0.435107        0.901900
H        2.242695       -0.333413       -0.874929
H        1.893358        1.119794        0.191135
N        0.461557       -0.439463       -0.040914
N       -0.427289        0.478867        0.035238
10
  Step 42: 42.0 fs
C       -1.809953       -0.071657        0.014461
H       -2.570222        0.563151        0.558301
H       -2.220965        0.083599       -0.952501
H       -2.201438       -1.334359        0.233424
C        1.810482        0.062278       -0.012559
H        2.362915       -0.441615        0.872596
H        2.260526       -0.329023       -0.892459
H        1.916661        1.129295        0.174739
N        0.458312       -0.447563       -0.038933
N       -0.426143        0.479347        0.037621
10
  Step 43: 43.0 fs
C       -1.810866       -0.070704        0.013504
H       -2.522985        0.559066        0.575145
H       -2.221992        0.074613       -0.998818
H       -2.190909       -1.311895        0.237731
C        1.810325        0.068997       -0.007700
H        2.316609       -0.444350        0.832229
H        2.286727       -0.324447       -0.921000
H        1.938347        1.143111        0.153206
N        0.452684       -0.454475       -0.036572
N       -0.423793        0.477884        0.040236
10
  Step 44: 44.0 fs
C       -1.813767       -0.071803        0.012268
H       -2.469219        0.554792        0.597699
H       -2.218320        0.065407       -1.048968
H       -2.160740       -1.256863        0.239405
C        1.810930        0.075215       -0.002587
H        2.269625       -0.447236        0.790835
H        2.314379       -0.315822       -0.949510
H        1.956924        1.159145        0.127916
N        0.444959       -0.459931       -0.033938
N       -0.420350        0.474397        0.042995
10
  Step 45: 45.0 fs
C       -1.818206       -0.074849        0.009736
H       -2.415942        0.554734        0.626837
H       -2.207783        0.056239       -1.090785
H       -2.112569       -1.174556        0.238894
C        1.811949        0.081279        0.000913
H        2.231602       -0.457010        0.762224
H        2.337798       -0.300874       -0.969544
H        1.971084        1.174432        0.100596
N        0.435543       -0.463805       -0.031159
N       -0.416030        0.468954        0.045804
10
  Step 46: 46.0 fs
C       -1.823481       -0.078979        0.005221
H       -2.368552        0.562096        0.662330
H       -2.190268        0.047950       -1.116314
H       -2.050611       -1.078983        0.238207
C        1.813011        0.087627        0.001447
H        2.210111       -0.479408        0.757432
H        2.353344       -0.279241       -0.976400
H        1.979814        1.186163        0.073384
N        0.424950       -0.466146       -0.028379
N       -0.411156        0.461795        0.048565
10
  Step 47: 47.0 fs
C       -1.828699       -0.081625       -0.001710
H       -2.329154        0.576596        0.701089
H       -2.167227        0.041396       -1.121781
H       -1.983132       -1.001584        0.243458
C        1.814135        0.094122       -0.001103
H        2.205760       -0.512507        0.775830
H        2.359352       -0.252147       -0.968871
H        1.982458        1.192746        0.048672
N        0.413793       -0.467185       -0.025744
N       -0.406150        0.453354        0.051193
10
  Step 48: 48.0 fs
C       -1.833053       -0.078883       -0.011344
H       -2.297361        0.594416        0.737431
H       -2.141223        0.037087       -1.107353
H       -1.918899       -0.986726        0.265589
C        1.815627        0.099991       -0.005721
H        2.213351       -0.546669        0.806284
H        2.356088       -0.222126       -0.949007
H        1.978715        1.194357        0.028837
N        0.402774       -0.467339       -0.023388
N       -0.401502        0.444270        0.053609
10
  Step 49: 49.0 fs
C       -1.836400       -0.069966       -0.022846
H       -2.272361        0.610694        0.765370
H       -2.115916        0.035398       -1.078138
H       -1.858489       -1.041587        0.307400
C        1.817632        0.104414       -0.010986
H        2.226856       -0.571402        0.836315
H        2.346036       -0.192951       -0.922442
H        1.968597        1.192781        0.015975
N        0.392643       -0.467173       -0.021428
N       -0.397708        0.435366        0.055748
10
  Step 50: 50.0 fs
C       -1.838635       -0.058351       -0.033633
H       -2.253919        0.621624        0.780492
H       -2.096152        0.036910       -1.045695
H       -1.800627       -1.124271        0.355570
C        1.819940        0.106917       -0.015481
H        2.241899       -0.579711        0.857215
H        2.333976       -0.169273       -0.898333
H        1.952381        1.190649        0.011669
N        0.384145       -0.467319       -0.019962
N       -0.395233        0.427519        0.057557
10
  Step 51: 51.0 fs
C       -1.839174       -0.047118       -0.040908
H       -2.242389        0.625058        0.780662
H       -2.087315        0.042261       -1.026648
H       -1.748253       -1.198778        0.396725
C        1.822081        0.107416       -0.017964
H        2.255921       -0.568525        0.864465
H        2.325939       -0.155599       -0.887504
H        1.930539        1.190308        0.016737
N        0.377936       -0.468369       -0.019051
N       -0.394489        0.421482        0.058998
10
  Step 52: 52.0 fs
C       -1.837434       -0.037777       -0.043019
H       -2.238738        0.620874        0.766464
H       -2.092961        0.051463       -1.033452
H       -1.704996       -1.248557        0.423915
C        1.823659        0.106056       -0.017760
H        2.267756       -0.537915        0.856880
H        2.325800       -0.154125       -0.896683
H        1.903698        1.192685        0.031006
N        0.374470       -0.470748       -0.018722
N       -0.395746        0.417765        0.060037
10
  Step 53: 53.0 fs
C       -1.833225       -0.030996       -0.040262
H       -2.244588        0.611209        0.741522
H       -2.112054        0.063229       -1.063088
H       -1.673461       -1.267776        0.434478
C        1.824599        0.103101       -0.015169
H        2.277681       -0.490898        0.836545
H        2.332324       -0.163244       -0.923406
H        1.872671        1.196801        0.053184
N        0.373909       -0.474620       -0.018948
N       -0.399021        0.416567        0.060638
10
  Step 54: 54.0 fs
C       -1.826725       -0.027166       -0.034400
H       -2.262097        0.600152        0.711984
H       -2.139525        0.075370       -1.100001
H       -1.655359       -1.255068        0.427826
C        1.824980        0.099002       -0.011397
H        2.287973       -0.433773        0.809600
H        2.340352       -0.178504       -0.957798
H        1.838479        1.200260        0.080943
N        0.376100       -0.479857       -0.019660
N       -0.404030        0.417782        0.060772
10
  Step 55: 55.0 fs
C       -1.818268       -0.026586       -0.027411
H       -2.293316        0.592472        0.684621
H       -2.169280        0.085792       -1.128296
H       -1.651772       -1.211381        0.404507
C        1.824666        0.094470       -0.008085
H        2.303565       -0.375960        0.786640
H        2.344459       -0.194903       -0.988853
H        1.802307        1.200397        0.111235
N        0.380625       -0.486087       -0.020742
N       -0.410217        0.421070        0.060418
10
  Step 56: 56.0 fs
C       -1.808356       -0.029213       -0.020666
H       -2.338268        0.590754        0.663300
H       -2.196176        0.092983       -1.138040
H       -1.663077       -1.140642        0.366327
C        1.823238        0.090288       -0.006750
H        2.330823       -0.327295        0.779752
H        2.341133       -0.208444       -1.008547
H        1.765380        1.195400        0.140751
N        0.386888       -0.492798       -0.022057
N       -0.416829        0.425963        0.059581
10
  Step 57: 57.0 fs
C       -1.797818       -0.034154       -0.014855
H       -2.393068        0.593399        0.647043
H       -2.216549        0.096091       -1.125460
H       -1.688325       -1.053507        0.317607