10
  Step 0: 0.0 fs
C       -1.803706       -0.067738        0.000064
H       -2.311499        0.330694        0.889253
H       -2.311370        0.329946       -0.889469
H       -1.816432       -1.165818        0.000676
C        1.803674        0.067714        0.000027
H        2.310894       -0.329689        0.890044
H        2.312182       -0.330871       -0.888633
H        1.816214        1.165786       -0.000406
N        0.410953       -0.460073       -0.000164
N       -0.410927        0.460086       -0.000123
10
  Step 1: 1.0 fs
C       -1.802936       -0.066183        0.002308
H       -2.341798        0.373084        0.869473
H       -2.356968        0.377773       -0.944891
H       -1.793663       -1.212355        0.000187
C        1.818534        0.071653       -0.002296
H        2.282499       -0.343304        0.914423
H        2.374602       -0.315419       -0.944525
H        1.763190        1.113507       -0.029307
N        0.405024       -0.455749        0.003165
N       -0.413200        0.451539        0.006411
10
  Step 2: 2.0 fs
C       -1.803105       -0.064824        0.003489
H       -2.369401        0.411882        0.847917
H       -2.391633        0.416213       -0.985118
H       -1.773298       -1.245153       -0.000178
C        1.833477        0.073568       -0.005408
H        2.255235       -0.354244        0.934936
H        2.428396       -0.296572       -0.986142
H        1.712588        1.081775       -0.056604
N        0.399630       -0.452137        0.006308
N       -0.415720        0.443639        0.012879
10
  Step 3: 3.0 fs
C       -1.804689       -0.063744        0.003231
H       -2.391990        0.443978        0.823481
H       -2.409879        0.440378       -1.003936
H       -1.757476       -1.256685       -0.000226
C        1.848476        0.072292       -0.009592
H        2.230462       -0.360072        0.948668
H        2.468588       -0.273584       -1.005836
H        1.665327        1.083981       -0.081429
N        0.395209       -0.449918        0.009106
N       -0.418703        0.436974        0.019219
10
  Step 4: 4.0 fs
C       -1.807874       -0.062884        0.001445
H       -2.408089        0.467186        0.796382
H       -2.409375        0.448024       -0.999971
H       -1.747930       -1.244568        0.000217
C        1.863209        0.068460       -0.014941
H        2.209859       -0.359268        0.954441
H        2.492937       -0.247324       -1.000761
H        1.623658        1.114369       -0.102473
N        0.392051       -0.449615        0.011426
N       -0.422276        0.431991        0.025380
10
  Step 5: 5.0 fs
C       -1.812631       -0.062052       -0.001866
H       -2.417378        0.480522        0.768415
H       -2.389760        0.438546       -0.974694
H       -1.745981       -1.210807        0.001299
C        1.876989        0.063808       -0.021460
H        2.195296       -0.351482        0.952990
H        2.501509       -0.219774       -0.972003
H        1.592033        1.155542       -0.117748
N        0.390283       -0.451510        0.013160
N       -0.426418        0.428945        0.031319
10
  Step 6: 6.0 fs
C       -1.818711       -0.060898       -0.006587
H       -2.420799        0.484341        0.742828
H       -2.352665        0.413038       -0.932538
H       -1.752407       -1.162222        0.003196
C        1.888932        0.060011       -0.028899
H        2.188544       -0.337323        0.946590
H        2.497135       -0.193942       -0.925134
H        1.574635        1.191909       -0.125659
N        0.389870       -0.455600        0.014220
N       -0.430937        0.427867        0.037006
10
  Step 7: 7.0 fs
C       -1.825567       -0.058910       -0.012286
H       -2.420449        0.480292        0.723817
H       -2.302957        0.375524       -0.883028
H       -1.767176       -1.111479        0.006228
C        1.897996        0.058323       -0.036476
H        2.190927       -0.317969        0.938377
H        2.486871       -0.174190       -0.872173
H        1.573711        1.214026       -0.125615
N        0.390619       -0.461631        0.014547
N       -0.435484        0.428574        0.042420
10
  Step 8: 8.0 fs
C       -1.832223       -0.055630       -0.017820
H       -2.419139        0.471002        0.715490
H       -2.250683        0.334992       -0.844610
H       -1.789343       -1.076044        0.011035
C        1.902951        0.059647       -0.042789
H        2.203047       -0.294770        0.931458
H        2.482652       -0.166223       -0.831880
H        1.589599        1.217614       -0.117981
N        0.392232       -0.469168        0.014105
N       -0.439613        0.430699        0.047551
10
  Step 9: 9.0 fs
C       -1.837369       -0.051170       -0.021186
H       -2.419462        0.459303        0.720112
H       -2.210261        0.304972       -0.844528
H       -1.817536       -1.070622        0.018453
C        1.902811        0.064456       -0.046449
H        2.224612       -0.268956        0.927910
H        2.496110       -0.175024       -0.821519
H        1.621090        1.202288       -0.103905
N        0.394367       -0.477674        0.012895
N       -0.442862        0.433752        0.052405
10
  Step 10: 10.0 fs
C       -1.840296       -0.046235       -0.021025
H       -2.422884        0.447431        0.736755
H       -2.189810        0.293341       -0.898900
H       -1.850519       -1.095982        0.028786
C        1.897821        0.072397       -0.047345
H        2.254389       -0.241612        0.928071
H        2.526990       -0.200517       -0.841261
H        1.665420        1.171894       -0.085237
N        0.396704       -0.486565        0.010961
N       -0.444823        0.437180        0.057005
10
  Step 11: 11.0 fs
C       -1.841654       -0.041411       -0.018499
H       -2.429351        0.436633        0.761381
H       -2.182966        0.293664       -0.989786
H       -1.886751       -1.138509        0.041198
C        1.889520        0.082072       -0.046567
H        2.290221       -0.213786        0.930338
H        2.562525       -0.236801       -0.874913
H        1.718126        1.136268       -0.064489
N        0.399002       -0.495263        0.008384
N       -0.445194        0.440440        0.061391
10
  Step 12: 12.0 fs
C       -1.842527       -0.037176       -0.015739
H       -2.437475        0.427208        0.788107
H       -2.179811        0.295679       -1.085025
H       -1.923903       -1.180902        0.054106
C        1.879695        0.091331       -0.045143
H        2.329157       -0.186643        0.931706
H        2.588996       -0.276335       -0.905611
H        1.773704        1.112039       -0.044541
N        0.401124       -0.503218        0.005272
N       -0.443824        0.443051        0.065595
10
  Step 13: 13.0 fs
C       -1.843658       -0.033982       -0.014048
H       -2.445237        0.418993        0.810919
H       -2.174950        0.293650       -1.161935
H       -1.959274       -1.210221        0.065888
C        1.869671        0.098077       -0.043577
H        2.367810       -0.161621        0.929073
H        2.597848       -0.313074       -0.923073
H        1.827670        1.116461       -0.027962
N        0.403024       -0.509927        0.001742
N       -0.440713        0.444615        0.069631
10
  Step 14: 14.0 fs
C       -1.845423       -0.032139       -0.013910
H       -2.450825        0.411977        0.825085
H       -2.166593        0.285680       -1.209000
H       -1.990380       -1.219435        0.075279
C        1.860204        0.101561       -0.042039
H        2.402856       -0.140317        0.920454
H        2.585313       -0.343072       -0.922867
H        1.877990        1.152913       -0.016647
N        0.404715       -0.514975       -0.002085
N       -0.435982        0.444840        0.073504
10
  Step 15: 15.0 fs
C       -1.847945       -0.031763       -0.015436
H       -2.453167        0.406632        0.827792
H       -2.154634        0.271763       -1.221488
H       -2.015249       -1.206403        0.081469
C        1.851747        0.102705       -0.040540
H        2.431483       -0.124140        0.905467
H        2.550914       -0.364185       -0.904500
H        1.923176        1.206863       -0.012059
N        0.406238       -0.518061       -0.006089
N       -0.429836        0.443545        0.077217
10
  Step 16: 16.0 fs
C       -1.851156       -0.032773       -0.018624
H       -2.452197        0.404056        0.818356
H       -2.139747        0.252818       -1.198667
H       -2.032560       -1.173198        0.084167
C        1.844591        0.102965       -0.039006
H        2.451694       -0.114047        0.885362
H        2.496966       -0.375966       -0.870813
H        1.960784        1.259180       -0.015072
N        0.407651       -0.519022       -0.010153
N       -0.422539        0.440663        0.080780
10
  Step 17: 17.0 fs
C       -1.854788       -0.034846       -0.023389
H       -2.448883        0.405939        0.798181
H       -2.123269        0.230611       -1.143660
H       -2.041861       -1.126441        0.083768
C        1.838720        0.103529       -0.037225
H        2.462612       -0.110517        0.862878
H        2.429044       -0.380184       -0.828672
H        1.988286        1.296157       -0.025765
N        0.409038       -0.517828       -0.014160
N       -0.414414        0.436248        0.084219
10
  Step 18: 18.0 fs
C       -1.858319       -0.037359       -0.029339
H       -2.445012        0.414315        0.770432
H       -2.107677        0.208317       -1.065959
H       -2.043949       -1.078298        0.081649
C        1.833641        0.105336       -0.034674
H        2.464631       -0.113693        0.841872
H        2.356904       -0.382109       -0.790451
H        2.003920        1.310592       -0.043579
N        0.410518       -0.514592       -0.018000
N       -0.405846        0.430481        0.087571
10
  Step 19: 19.0 fs
C       -1.860909       -0.039524       -0.035281
H       -2.442686        0.431064        0.739389
H       -2.097652        0.191661       -0.986703
H       -2.040960       -1.045555        0.080276
C        1.828507        0.109245       -0.030537
H        2.459311       -0.123570        0.826533
H        2.293100       -0.390569       -0.772878
H        2.006822        1.300031       -0.067526
N        0.412244       -0.509567       -0.021568
N       -0.397291        0.423678        0.090877
10
  Step 20: 20.0 fs
C       -1.861474       -0.040941       -0.038845
H       -2.443554        0.457150        0.709325
H       -2.100776        0.189326       -0.941028
H       -2.035412       -1.042728        0.082338
C        1.822723        0.115635       -0.024366
H        2.448847       -0.140069        0.820200
H        2.246257       -0.412567       -0.787735
H        1.996982        1.266166       -0.096296
N        0.414399       -0.503141       -0.024773
N       -0.389286        0.416285        0.094172
10
  Step 21: 21.0 fs
C       -1.859296       -0.041977       -0.038082
H       -2.448061        0.491923        0.683335
H       -2.122789        0.207453       -0.955988
H       -2.028461       -1.071342        0.088863
C        1.816501        0.123637       -0.016930
H        2.435131       -0.162784        0.824077
H        2.215040       -0.445092       -0.830135
H        1.975390        1.215629       -0.128432
N        0.417194       -0.495826       -0.027549
N       -0.382418        0.408865        0.097485
10
  Step 22: 22.0 fs
C       -1.854857       -0.043095       -0.034183
H       -2.455127        0.532854        0.662580
H       -2.158502        0.240516       -1.016834
H       -2.019654       -1.118530        0.098543
C        1.810439        0.131143       -0.009686
H        2.418962       -0.190437        0.836560
H        2.193033       -0.477715       -0.883377
H        1.944422        1.161981       -0.162900
N        0.420857       -0.488209       -0.029869
N       -0.377269        0.402044        0.100845
10
  Step 23: 23.0 fs
C       -1.849330       -0.044460       -0.029749
H       -2.462226        0.575685        0.646000
H       -2.196377        0.276590       -1.088749
H       -2.008335       -1.166905        0.109115
C        1.804940        0.135553       -0.003652
H        2.400031       -0.220485        0.853753
H        2.175499       -0.501170       -0.931774
H        1.907708        1.125183       -0.200014
N        0.425593       -0.480894       -0.031744
N       -0.374342        0.396422        0.104275
10
  Step 24: 24.0 fs
C       -1.843681       -0.046098       -0.026387
H       -2.466207        0.615287        0.631246
H       -2.227575        0.306658       -1.147716
H       -1.994503       -1.202804        0.118688
C        1.800195        0.134899        0.000794
H        2.377756       -0.249456        0.871040
H        2.160540       -0.510483       -0.965469
H        1.868546        1.121749       -0.240735
N        0.431491       -0.474411       -0.033207
N       -0.373979        0.392474        0.107775
10
  Step 25: 25.0 fs
C       -1.838472       -0.047932       -0.024705
H       -2.464450        0.646962        0.616234
H       -2.247308        0.325849       -1.182577
H       -1.978793       -1.218301        0.126116
C        1.796349        0.129138        0.003374
H        2.352208       -0.273950        0.884787
H        2.148010       -0.504176       -0.979572
H        1.828448        1.149650       -0.282925
N        0.438428       -0.469138       -0.034285
N       -0.376295        0.390464        0.111317
10
  Step 26: 26.0 fs
C       -1.833950       -0.049790       -0.024869
H       -2.455622        0.667383        0.600064
H       -2.253325        0.331868       -1.189358
H       -1.962244       -1.210582        0.130930
C        1.793437        0.119868        0.003606
H        2.324488       -0.291507        0.893246
H        2.138708       -0.483084       -0.972704
H        1.788495        1.191037       -0.320204
N        0.446026       -0.465239       -0.034981
N       -0.381126        0.390409        0.114839
10
  Step 27: 27.0 fs
C       -1.830140       -0.051411       -0.026916
H       -2.439982        0.675107        0.583343
H       -2.244789        0.323841       -1.167783
H       -1.946178       -1.181272        0.133274
C        1.791295        0.108981        0.001109
H        2.296567       -0.300916        0.896640
H        2.134239       -0.449972       -0.946787
H        1.750506        1.227898       -0.345810
N        0.453689       -0.462665       -0.035278
N       -0.388050        0.392107        0.118245
10
  Step 28: 28.0 fs
C       -1.826869       -0.052406       -0.030830
H       -2.419414        0.670815        0.568197
H       -2.222030        0.302059       -1.120559
H       -1.932161       -1.136847        0.134043
C        1.789582        0.098070       -0.004037
H        2.270884       -0.302046        0.896770
H        2.137308       -0.409929       -0.908078
H        1.716576        1.249211       -0.355373
N        0.460675       -0.461214       -0.035162
N       -0.396429        0.395203        0.121421
10
  Step 29: 29.0 fs
C       -1.823747       -0.052229       -0.036425
H       -2.397271        0.657285        0.558046
H       -2.187099        0.268474       -1.054825
H       -1.921916       -1.089422        0.135172
C        1.787786        0.088517       -0.011066
H        2.249831       -0.295469        0.896302
H        2.152386       -0.371038       -0.868768
H        1.688522        1.250224       -0.347103
N        0.466212       -0.460621       -0.034647
N       -0.405498        0.399276        0.124251
10
  Step 30: 30.0 fs
C       -1.820087       -0.050365       -0.042937
H       -2.377845        0.638926        0.556937
H       -2.145289        0.228089       -0.986339
H       -1.917043       -1.055370        0.139629
C        1.785263        0.081522       -0.018639
H        2.235195       -0.282042        0.897776
H        2.185501       -0.343063       -0.845236
H        1.667685        1.230476       -0.321199
N        0.469602       -0.460643       -0.033793
N       -0.414452        0.403915        0.126633
10
  Step 31: 31.0 fs
C       -1.814915       -0.046911       -0.048410
H       -2.365204        0.620350        0.567966
H       -2.106682        0.190050       -0.944061
H       -1.918321       -1.047956        0.150218
C        1.781606        0.077659       -0.025654
H        2.227715       -0.262653        0.902640
H        2.240323       -0.331913       -0.847783
H        1.654816        1.193238       -0.279554
N        0.470313       -0.461129       -0.032707
N       -0.422539        0.408774        0.128485
10
  Step 32: 32.0 fs
C       -1.807467       -0.042875       -0.050194
H       -2.361676        0.604432        0.591220
H       -2.082323        0.163596       -0.959894
H       -1.924943       -1.067722        0.167294
C        1.777189        0.076376       -0.032101
H        2.226965       -0.238251        0.910687
H        2.312029       -0.334685       -0.870219
H        1.649873        1.146323       -0.225829
N        0.468013       -0.462014       -0.031526
N       -0.429119        0.413591        0.129763
10
  Step 33: 33.0 fs
C       -1.798211       -0.039248       -0.047891
H       -2.367038        0.591378        0.622919
H       -2.072732        0.148543       -1.032283
H       -1.934563       -1.103022        0.188129
C        1.773073        0.076137       -0.038507
H        2.231530       -0.210108        0.920104
H        2.388766       -0.343352       -0.896801
H        1.651734        1.103788       -0.165496
N        0.462602       -0.463293       -0.030383
N       -0.433710        0.418190        0.130457
10
  Step 34: 34.0 fs
C       -1.788595       -0.036534       -0.043598
H       -2.378884        0.579402        0.656603
H       -2.069357        0.138146       -1.126074
H       -1.944204       -1.139242        0.208677
C        1.770369        0.075051       -0.045107
H        2.239508       -0.180178        0.928271
H        2.458478       -0.350625       -0.914426
H        1.658313        1.084106       -0.104533
N        0.454227       -0.464973       -0.029396
N       -0.436020        0.422478        0.130587
10
  Step 35: 35.0 fs
C       -1.779924       -0.035070       -0.039106
H       -2.393778        0.566233        0.685382
H       -2.065476        0.127910       -1.209752
H       -1.951160       -1.165284        0.225380
C        1.769797        0.071959       -0.051846
H        2.249023       -0.151121        0.932894
H        2.512509       -0.351913       -0.916104
H        1.667820        1.098895       -0.047052
N        0.443265       -0.467036       -0.028666
N       -0.435963        0.426431        0.130182
10
  Step 36: 36.0 fs
C       -1.773044       -0.035086       -0.035187
H       -2.408466        0.550392        0.703799
H       -2.058221        0.116353       -1.266384
H       -1.953404       -1.174921        0.235853
C        1.771579        0.067380       -0.058523
H        2.258531       -0.125911        0.932751
H        2.545769       -0.345076       -0.899692
H        1.679910        1.141193        0.004512
N        0.430272       -0.469438       -0.028286
N       -0.433645        0.430086        0.129280
10
  Step 37: 37.0 fs
C       -1.768418       -0.036661       -0.032099
H       -2.420660        0.531683        0.708640
H       -2.046875        0.103401       -1.288718
H       -1.949676       -1.166321        0.238954
C        1.775579        0.062855       -0.064740
H        2.266847       -0.107148        0.927811
H        2.556291       -0.329933       -0.866578
H        1.694756        1.192495        0.047356
N        0.415935       -0.472134       -0.028335
N       -0.429332        0.433536        0.127935
10
  Step 38: 38.0 fs
C       -1.766193       -0.039692       -0.029988
H       -2.429441        0.511251        0.699133
H       -2.031709        0.089490       -1.274550
H       -1.939482       -1.141505        0.234741
C        1.781390        0.059799       -0.069921
H        2.273123       -0.096655        0.919180
H        2.545554       -0.308150       -0.821605
H        1.711976        1.236319        0.078544
N        0.401013       -0.475092       -0.028884
N       -0.423408        0.436917        0.126221
10
  Step 39: 39.0 fs
C       -1.766213       -0.043828       -0.029036
H       -2.435466        0.491437        0.676916
H       -2.013626        0.075316       -1.225254
H       -1.923144       -1.106753        0.224656
C        1.788230        0.059192       -0.073288
H        2.276899       -0.095462        0.908969
H        2.519924       -0.283660       -0.774138
H        1.730689        1.262680        0.096008
N        0.386291       -0.478313       -0.029987
N       -0.416348        0.440403        0.124231
10
  Step 40: 40.0 fs
C       -1.768005       -0.048418       -0.029368
H       -2.440934        0.475451        0.645828
H       -1.994317        0.061936       -1.146875
H       -1.901837       -1.073052        0.211738
C        1.794824        0.061747       -0.073782
H        2.278163       -0.103987        0.899948
H        2.492028       -0.263096       -0.738908
H        1.749833        1.266947        0.098861
N        0.372518       -0.481831       -0.031685
N       -0.408681        0.444179        0.122071
10
  Step 41: 41.0 fs
C       -1.770791       -0.052619       -0.030605
H       -2.449197        0.466766        0.611349
H       -1.976966        0.051134       -1.054536
H       -1.877283       -1.054604        0.200355
C        1.799717        0.067913       -0.070318
H        2.277325       -0.122224        0.894789
H        2.477277       -0.254103       -0.732289
H        1.768269        1.248479        0.087356
N        0.360352       -0.485682       -0.033995
N       -0.400948        0.448414        0.119850
10
  Step 42: 42.0 fs
C       -1.773579       -0.055912       -0.031056
H       -2.463474        0.467925        0.579190
H       -1.967317        0.045981       -0.978754
H       -1.850906       -1.062112        0.194440
C        1.802344        0.077387       -0.062706
H        2.275027       -0.149769        0.895069
H        2.481498       -0.259759       -0.760347
H        1.784763        1.210796        0.062947
N        0.350307       -0.489859       -0.036901
N       -0.393656        0.453224        0.117661
10
  Step 43: 43.0 fs
C       -1.775460       -0.058636       -0.027822
H       -2.485046        0.479233        0.553414
H       -1.972633        0.050178       -0.959736
H       -1.823406       -1.094594        0.195081
C        1.803551        0.088672       -0.052165
H        2.271804       -0.185541        0.900491
H        2.494831       -0.275415       -0.812047
H        1.798041        1.163339        0.028429
N        0.342743       -0.494268       -0.040350
N       -0.387242        0.458634        0.115560
10
  Step 44: 44.0 fs
C       -1.776287       -0.061522       -0.020065
H       -2.512254        0.498331        0.535369
H       -1.994032        0.063756       -1.007279
H       -1.795526       -1.140076        0.200370
C        1.804595        0.099280       -0.040405
H        2.267720       -0.227328        0.908676
H        2.503147       -0.293572       -0.869560
H        1.807125        1.123478       -0.012412
N        0.337877       -0.498698       -0.044250
N       -0.382029        0.464552        0.113563
10
  Step 45: 45.0 fs
C       -1.776858       -0.064891       -0.010335
H       -2.540864        0.520798        0.523863
H       -2.023458        0.081185       -1.087205
H       -1.768662       -1.183915        0.207414
C        1.806279        0.106472       -0.028686
H        2.262425       -0.271590        0.916042
H        2.497528       -0.308709       -0.918799
H        1.811785        1.112398       -0.056179
N        0.335801       -0.502824       -0.048483
N       -0.378214        0.470758        0.111653
10
  Step 46: 46.0 fs
C       -1.778049       -0.068693       -0.001192
H       -2.565568        0.541469        0.516379
H       -2.052473        0.096645       -1.164284
H       -1.744601       -1.214841        0.213864
C        1.808876        0.108771       -0.017706
H        2.255673       -0.314090        0.919328
H        2.474743       -0.318060       -0.951441
H        1.812519        1.138799       -0.100743
N        0.336467       -0.506247       -0.052912
N       -0.375878        0.476925        0.109779
10
  Step 47: 47.0 fs
C       -1.780361       -0.072750        0.006074
H       -2.581851        0.555937        0.510626
H       -2.076231        0.106687       -1.219498
H       -1.725088       -1.226427        0.218335
C        1.812308        0.106861       -0.007996
H        2.247809       -0.351031        0.916840
H        2.435163       -0.320836       -0.963507
H        1.810182        1.188702       -0.143180
N        0.339695       -0.508528       -0.057384
N       -0.375005        0.482656        0.107872
10
  Step 48: 48.0 fs
C       -1.783942       -0.076803        0.010926
H       -2.587088        0.561410        0.505391
H       -2.092507        0.109683       -1.244852
H       -1.711551       -1.216910        0.220392
C        1.816245        0.102388       -0.000120
H        2.239919       -0.379864        0.908896
H        2.381550       -0.317590       -0.954434
H        1.805828        1.239767       -0.178876
N        0.345200       -0.509243       -0.061738
N       -0.375502        0.487550        0.105859
10
  Step 49: 49.0 fs
C       -1.788687       -0.080513        0.013084
H       -2.580945        0.557065        0.500813
H       -2.100414        0.104970       -1.237767
H       -1.704943       -1.188811        0.220474
C        1.820143        0.096776        0.005535
H        2.233673       -0.399571        0.897569
H        2.318862       -0.310178       -0.927392
H        1.800591        1.275563       -0.203409
N        0.352623       -0.508018       -0.065811
N       -0.377210        0.491250        0.103683
10
  Step 50: 50.0 fs
C       -1.794300       -0.083399        0.012323
H       -2.565432        0.544193        0.498434
H       -2.099870        0.092474       -1.198785
H       -1.705527       -1.149358        0.220004
C        1.823249        0.091088        0.009043
H        2.230988       -0.410469        0.886065
H        2.254676       -0.302396       -0.890853
H        1.795518        1.287709       -0.213829
N        0.361552       -0.504569       -0.069442
N       -0.379927        0.493485        0.101308
10
  Step 51: 51.0 fs
C       -1.800332       -0.084834        0.008482
H       -2.544716        0.526166        0.501149
H       -2.091647        0.072754       -1.131807
H       -1.712658       -1.110514        0.221494
C        1.824664        0.086236        0.011143
H        2.233629       -0.413718        0.877728
H        2.199048       -0.300591       -0.859861
H        1.791514        1.273538       -0.208757
N        0.371534       -0.498740       -0.072485
N       -0.383420        0.494089        0.098723
10
  Step 52: 52.0 fs
C       -1.806168       -0.084242        0.001778
H       -2.524350        0.507926        0.512797
H       -2.078148        0.047472       -1.046964
H       -1.724877       -1.086510        0.228251
C        1.823617        0.082915        0.012980
H        2.242719       -0.410707        0.874855
H        2.161660       -0.312062       -0.851818
H        1.789302        1.234818       -0.188292
N        0.382102       -0.490521       -0.074807
N       -0.387453        0.493009        0.095939
10
  Step 53: 53.0 fs
C       -1.810980       -0.081634       -0.006413
H       -2.509213        0.494261        0.536682
H       -2.065163        0.020140       -0.966823
H       -1.740667       -1.086331        0.242824
C        1.819960        0.081044        0.015103
H        2.258300       -0.402568        0.877789
H        2.146324       -0.339431       -0.873357
H        1.789374        1.178276       -0.154102
N        0.392803       -0.480066       -0.076304
N       -0.391807        0.490311        0.092977
10
  Step 54: 54.0 fs
C       -1.813771       -0.077918       -0.012891
H       -2.500904        0.487432        0.573166
H       -2.063149       -0.004211       -0.929614
H       -1.759160       -1.107214        0.264902
C        1.814291        0.079256        0.016937
H        2.279143       -0.390085        0.884813
H        2.149426       -0.377010       -0.913513
H        1.791934        1.117994       -0.109724
N        0.403241       -0.467694       -0.076914
N       -0.396314        0.486180        0.089865
10
  Step 55: 55.0 fs
C       -1.814008       -0.074257       -0.014726
H       -2.497042        0.486373        0.618293
H       -2.080671       -0.022815       -0.962788
H       -1.779855       -1.137731        0.291170
C        1.807520        0.075215        0.017645
H        2.302940       -0.374022        0.892840
H        2.164535       -0.415219       -0.954818
H        1.797030        1.076223       -0.060177
N        0.413103       -0.453884       -0.076634
N       -0.400866        0.480906        0.086629
10
  Step 56: 56.0 fs
C       -1.812471       -0.071361       -0.012815
H       -2.493266        0.488200        0.665233
H       -2.113185       -0.037160       -1.044124
H       -1.801961       -1.165763        0.317231
C        1.800498        0.066941        0.016733
H        2.326870       -0.355675        0.898658
H        2.186027       -0.445899       -0.984042
H        1.804954        1.073436       -0.009729
N        0.422162       -0.439235       -0.075511
N       -0.405404        0.474872        0.083303
10
  Step 57: 57.0 fs
C       -1.810470       -0.069657       -0.009672
H       -2.485592        0.490129        0.706872
H       -2.149952       -0.048681       -1.132288
H       -1.824360       -1.182786        0.339186