10
  Step 0: 0.0 fs
C       -1.803705       -0.067738        0.000068
H       -2.311470        0.330668        0.889283
H       -2.311399        0.329953       -0.889458
H       -1.816432       -1.165815        0.000665
C        1.803676        0.067713        0.000034
H        2.310905       -0.329712        0.890038
H        2.312176       -0.330854       -0.888641
H        1.816220        1.165789       -0.000397
N        0.410954       -0.460074       -0.000162
N       -0.410929        0.460089       -0.000137
10
  Step 1: 1.0 fs
C       -1.813223       -0.064264        0.009247
H       -2.350119        0.318092        0.786013
H       -2.341863        0.311410       -0.890740
H       -1.809537       -1.104982       -0.050058
C        1.800633        0.076245        0.000144
H        2.340731       -0.326282        0.894765
H        2.333836       -0.366503       -0.943685
H        1.811268        1.112998       -0.006392
N        0.426240       -0.469139        0.002439
N       -0.414322        0.462847        0.004531
10
  Step 2: 2.0 fs
C       -1.821553       -0.060162        0.015833
H       -2.401996        0.316064        0.710459
H       -2.368409        0.293674       -0.892252
H       -1.803012       -1.065384       -0.098414
C        1.798612        0.082123       -0.000548
H        2.367279       -0.321157        0.894466
H        2.347770       -0.394646       -0.984064
H        1.806608        1.083305       -0.013229
N        0.440569       -0.477567        0.005083
N       -0.417184        0.465091        0.009284
10
  Step 3: 3.0 fs
C       -1.827652       -0.055063        0.018251
H       -2.478346        0.331755        0.680304
H       -2.387822        0.278095       -0.895087
H       -1.797013       -1.062218       -0.143335
C        1.798185        0.083477       -0.002350
H        2.388187       -0.313302        0.886170
H        2.350573       -0.411129       -1.002883
H        1.802454        1.094448       -0.021826
N        0.453160       -0.484872        0.007815
N       -0.419127        0.466452        0.014202
10
  Step 4: 4.0 fs
C       -1.832101       -0.049022        0.017102
H       -2.570509        0.358790        0.686564
H       -2.397893        0.266257       -0.900492
H       -1.792102       -1.092004       -0.182655
C        1.799618        0.080659       -0.005412
H        2.402454       -0.302564        0.869477
H        2.341401       -0.414199       -0.998128
H        1.798799        1.140955       -0.032562
N        0.463394       -0.490702        0.010678
N       -0.419874        0.466674        0.019347
10
  Step 5: 5.0 fs
C       -1.836424       -0.042703        0.013691
H       -2.657841        0.384889        0.709538
H       -2.397427        0.259517       -0.909005
H       -1.789407       -1.137342       -0.212270
C        1.802901        0.075686       -0.009879
H        2.410597       -0.289654        0.846580
H        2.321145       -0.403924       -0.971265
H        1.795619        1.200103       -0.044957
N        0.470818       -0.494819        0.013717
N       -0.419248        0.465583        0.024757
10
  Step 6: 6.0 fs
C       -1.841709       -0.037023        0.008843
H       -2.724480        0.401778        0.735007
H       -2.386199        0.258753       -0.920411
H       -1.790008       -1.180680       -0.228407
C        1.807697        0.070634       -0.015776
H        2.414566       -0.275925        0.821922
H        2.292694       -0.382396       -0.927811
H        1.793046        1.250831       -0.058117
N        0.475148       -0.497081        0.016975
N       -0.417179        0.463078        0.030452
10
  Step 7: 7.0 fs
C       -1.848383       -0.032710        0.003002
H       -2.762259        0.405878        0.755148
H       -2.364924        0.264377       -0.934295
H       -1.794599       -1.210396       -0.229182
C        1.813263        0.067125       -0.022711
H        2.417323       -0.263066        0.801348
H        2.262034       -0.354769       -0.879504
H        1.791303        1.280608       -0.071218
N        0.476267       -0.497438        0.020487
N       -0.413695        0.459131        0.036441
10
  Step 8: 8.0 fs
C       -1.856434       -0.030193       -0.003505
H       -2.768049        0.396355        0.765788
H       -2.335111        0.276416       -0.950460
H       -1.803534       -1.220469       -0.214602
C        1.818462        0.066494       -0.029535
H        2.421737       -0.252549        0.790206
H        2.239155       -0.330287       -0.846159
H        1.790604        1.283959       -0.083644
N        0.474235       -0.495949        0.024273
N       -0.408924        0.453811        0.042723
10
  Step 9: 9.0 fs
C       -1.865604       -0.029641       -0.010375
H       -2.741821        0.373993        0.764808
H       -2.298758        0.294491       -0.968850
H       -1.816908       -1.208958       -0.186129
C        1.822190        0.069684       -0.034675
H        2.429086       -0.245036        0.790828
H        2.234691       -0.319378       -0.849152
H        1.791035        1.260442       -0.094941
N        0.469294       -0.492802        0.028326
N       -0.403099        0.447307        0.049292
10
  Step 10: 10.0 fs
C       -1.875432       -0.030971       -0.017401
H       -2.686480        0.341121        0.752162
H       -2.257953        0.317686       -0.989027
H       -1.834530       -1.177728       -0.146491
C        1.824270        0.076475       -0.037660
H        2.438401       -0.240199        0.801344
H        2.250219       -0.324533       -0.892015
H        1.792441        1.214452       -0.104802
N        0.461870       -0.488337        0.032614
N       -0.396574        0.439946        0.056131
10
  Step 11: 11.0 fs
C       -1.885170       -0.033827       -0.024646
H       -2.609399        0.302468        0.731499
H       -2.214691        0.344382       -1.009606
H       -1.855770       -1.133412       -0.099639
C        1.825591        0.085203       -0.039599
H        2.447100       -0.237025        0.816739
H        2.276327       -0.338195       -0.955694
H        1.794360        1.156907       -0.113287
N        0.452557       -0.483046        0.037078
N       -0.389823        0.432193        0.063219
10
  Step 12: 12.0 fs
C       -1.893573       -0.037547       -0.032758
H       -2.524905        0.266615        0.713512
H       -2.170984        0.372251       -1.028112
H       -1.879441       -1.089043       -0.050505
C        1.827189        0.093325       -0.041720
H        2.452315       -0.234277        0.831132
H        2.302256       -0.351471       -1.017750
H        1.796033        1.107461       -0.121298
N        0.442123       -0.477561        0.041636
N       -0.383442        0.424635        0.070528
10
  Step 13: 13.0 fs
C       -1.898942       -0.041299       -0.043122
H       -2.453390        0.245944        0.717510
H       -2.129094        0.398625       -1.041580
H       -1.904081       -1.062762       -0.003958
C        1.829709        0.098189       -0.044609
H        2.452057       -0.230922        0.839818
H        2.321134       -0.358854       -1.063562
H        1.796566        1.090551       -0.130595
N        0.431470       -0.472613        0.046185
N       -0.378114        0.417942        0.078010
10
  Step 14: 14.0 fs
C       -1.900137       -0.044387       -0.056787
H       -2.408409        0.250158        0.758655
H       -2.091637        0.421237       -1.047921
H       -1.928776       -1.068429        0.036536
C        1.833379        0.098541       -0.048465
H        2.445761       -0.226402        0.840291
H        2.329569       -0.357930       -1.085862
H        1.795509        1.117468       -0.142267
N        0.421533       -0.468949        0.050606
N       -0.374529        0.412773        0.085595
10
  Step 15: 15.0 fs
C       -1.897620       -0.046623       -0.072540
H       -2.384303        0.277670        0.826811
H       -2.061308        0.439002       -1.047286
H       -1.953354       -1.103580        0.068556
C        1.838056        0.095512       -0.053495
H        2.434479       -0.220832        0.832648
H        2.326368       -0.348298       -1.082192
H        1.793359        1.173788       -0.155059
N        0.413155       -0.467204        0.054780
N       -0.373266        0.409665        0.093182
10
  Step 16: 16.0 fs
C       -1.892529       -0.048459       -0.087631
H       -2.367977        0.319218        0.896346
H       -2.040502        0.452283       -1.042304
H       -1.977488       -1.151904        0.089496
C        1.843310        0.091265       -0.059894
H        2.420700       -0.214926        0.819454
H        2.312058       -0.331081       -1.053924
H        1.791139        1.234866       -0.166545
N        0.406961       -0.467772        0.058597
N       -0.374691        0.408920        0.100653
10
  Step 17: 17.0 fs
C       -1.885665       -0.050561       -0.099706
H       -2.351329        0.365747        0.947202
H       -2.030986        0.462442       -1.036916
H       -2.000287       -1.195886        0.097107
C        1.848465        0.087616       -0.067571
H        2.407833       -0.209760        0.805119
H        2.289298       -0.309180       -1.007176
H        1.789717        1.282215       -0.174843
N        0.403268       -0.470702        0.061965
N       -0.378872        0.410511        0.107881
10
  Step 18: 18.0 fs
C       -1.877463       -0.053348       -0.107401
H       -2.331510        0.410722        0.969106
H       -2.033639        0.470826       -1.034437
H       -2.020558       -1.223617        0.090426
C        1.852599        0.085888       -0.075792
H        2.399275       -0.206376        0.794535
H        2.264059       -0.288319       -0.955421
H        1.789611        1.305985       -0.179032
N        0.402045       -0.475680        0.064816
N       -0.385555        0.414060        0.114734
10
  Step 19: 19.0 fs
C       -1.868217       -0.056833       -0.110243
H       -2.308449        0.449619        0.958423
H       -2.048203        0.477669       -1.035735
H       -2.037122       -1.229145        0.069938
C        1.854604        0.087152       -0.082917
H        2.397116       -0.205260        0.790890
H        2.246166       -0.277635       -0.920551
H        1.791018        1.302349       -0.178949
N        0.402977       -0.482109        0.067108
N       -0.394205        0.418912        0.121067
10
  Step 20: 20.0 fs
C       -1.858215       -0.060635       -0.108461
H       -2.283475        0.479305        0.915682
H       -2.073110        0.481696       -1.038795
H       -2.048999       -1.211321        0.037365
C        1.853646        0.092010       -0.087138
H        2.401422       -0.206091        0.794124
H        2.244827       -0.285863       -0.922846
H        1.793804        1.271967       -0.174978
N        0.405554       -0.489236        0.068822
N       -0.404096        0.424266        0.126731
10
  Step 21: 21.0 fs
C       -1.847746       -0.064061       -0.102837
H       -2.259070        0.498088        0.845126
H       -2.105529        0.480759       -1.039974
H       -2.055677       -1.173649       -0.004471
C        1.849928        0.099832       -0.088225
H        2.410539       -0.207954        0.801214
H        2.259382       -0.312504       -0.960701
H        1.797432        1.220481       -0.167987
N        0.409194       -0.496278        0.069969
N       -0.414427        0.429304        0.131581
10
  Step 22: 22.0 fs
C       -1.836988       -0.066218       -0.094642
H       -2.239468        0.506814        0.756121
H       -2.141707        0.473015       -1.036065
H       -2.057568       -1.125207       -0.051822
C        1.844543        0.108563       -0.087451
H        2.421965       -0.209771        0.807749
H        2.280191       -0.347670       -1.012783
H        1.800891        1.160999       -0.159525
N        0.413336       -0.502531        0.070574
N       -0.424413        0.433312        0.135492
10
  Step 23: 23.0 fs
C       -1.825795       -0.066278       -0.085659
H       -2.231897        0.511171        0.665373
H       -2.177473        0.457840       -1.025806
H       -2.056478       -1.080885       -0.100657
C        1.838589        0.115319       -0.086002
H        2.433216       -0.210640        0.809654
H        2.297906       -0.380869       -1.058532
H        1.802820        1.116131       -0.151985
N        0.417516       -0.507432        0.070672
N       -0.433353        0.435747        0.138375
10
  Step 24: 24.0 fs
C       -1.813614       -0.063958       -0.077933
H       -2.246960        0.522789        0.595565
H       -2.208853        0.436179       -1.010558
H       -2.055127       -1.057172       -0.147695
C        1.832775        0.117388       -0.084461
H        2.442417       -0.210049        0.804368
H        2.307003       -0.405155       -1.086029
H        1.802096        1.110433       -0.147909
N        0.421373       -0.510579        0.070293
N       -0.440685        0.436267        0.140191
10
  Step 25: 25.0 fs
C       -1.800078       -0.059702       -0.072722
H       -2.292807        0.551120        0.562477
H       -2.232616        0.410415       -0.993938
H       -2.054920       -1.061996       -0.190566
C        1.827395        0.114105       -0.083164
H        2.448704       -0.208025        0.791468
H        2.305019       -0.416935       -1.090249
H        1.798660        1.148305       -0.148251
N        0.424635       -0.511745        0.069480
N       -0.446001        0.434739        0.140955
10
  Step 26: 26.0 fs
C       -1.786046       -0.053983       -0.069575
H       -2.364376        0.590065        0.561460
H       -2.246649        0.383768       -0.980527
H       -2.054101       -1.089009       -0.226481
C        1.822445        0.107237       -0.082456
H        2.452343       -0.205127        0.772759
H        2.291419       -0.415043       -1.070621
H        1.793367        1.208547       -0.151894
N        0.427097       -0.510869        0.068283
N       -0.449045        0.431229        0.140738
10
  Step 27: 27.0 fs
C       -1.773331       -0.047165       -0.067294
H       -2.445716        0.623976        0.577080
H       -2.249974        0.359480       -0.974241
H       -2.049092       -1.124298       -0.251946
C        1.817724        0.099116       -0.082586
H        2.454564       -0.202236        0.751895
H        2.267287       -0.400395       -1.030369
H        1.787170        1.265905       -0.157101
N        0.428638       -0.508046        0.066762
N       -0.449680        0.425982        0.139652
10
  Step 28: 28.0 fs
C       -1.763586       -0.039804       -0.065064
H       -2.521425        0.641191        0.596938
H       -2.242454        0.340110       -0.977258
H       -2.036900       -1.155239       -0.263985
C        1.812854        0.091559       -0.083458
H        2.457087       -0.200285        0.733481
H        2.235894       -0.376487       -0.977656
H        1.780750        1.304016       -0.162472
N        0.429229       -0.503505        0.064978
N       -0.447878        0.419389        0.137844
10
  Step 29: 29.0 fs
C       -1.757862       -0.032536       -0.062573
H       -2.581098        0.636685        0.613916
H       -2.224384        0.327163       -0.989770
H       -2.016144       -1.173726       -0.260988
C        1.807253        0.085975       -0.084299
H        2.461300       -0.199970        0.721670
H        2.203813       -0.350615       -0.927867
H        1.774528        1.315076       -0.167067
N        0.428942       -0.497607        0.062988
N       -0.443741        0.411956        0.135481
10
  Step 30: 30.0 fs
C       -1.756659       -0.025872       -0.059805
H       -2.618596        0.609683        0.624183
H       -2.196272        0.321025       -1.010234
H       -1.987018       -1.175897       -0.242812
C        1.800237        0.083545       -0.083608
H        2.467289       -0.201485        0.718495
H        2.180648       -0.333490       -0.902621
H        1.768683        1.296984       -0.170277
N        0.427946       -0.490841        0.060834
N       -0.437525        0.404284        0.132739
10
  Step 31: 31.0 fs
C       -1.760027       -0.020124       -0.056885
H       -2.630743        0.561823        0.625754
H       -2.158882        0.321089       -1.035801
H       -1.950947       -1.161311       -0.210621
C        1.791536        0.084791       -0.080172
H        2.473540       -0.204547        0.723129
H        2.173302       -0.332899       -0.917014
H        1.763160        1.252248       -0.171697
N        0.426497       -0.483822        0.058544
N       -0.429669        0.397061        0.129798
10
  Step 32: 32.0 fs
C       -1.767577       -0.015384       -0.054027
H       -2.617073        0.496727        0.618224
H       -2.113497        0.325942       -1.062830
H       -1.910315       -1.132958       -0.166829
C        1.781851        0.088842       -0.074458
H        2.477545       -0.208656        0.732589
H        2.178842       -0.345892       -0.963659
H        1.757614        1.189061       -0.171222
N        0.424928       -0.477276        0.056140
N       -0.420792        0.391058        0.126834
10
  Step 33: 33.0 fs
C       -1.778391       -0.011547       -0.051580
H       -2.581125        0.420675        0.603773
H       -2.062197        0.333587       -1.087398
H       -1.868094       -1.098026       -0.115041
C        1.772422        0.093558       -0.067992
H        2.476762       -0.213319        0.743142
H        2.188454       -0.362963       -1.020914
H        1.751472        1.124156       -0.169529
N        0.423614       -0.471984        0.053633
N       -0.411640        0.387083        0.124023
10
  Step 34: 34.0 fs
C       -1.790858       -0.008460       -0.050225
H       -2.533503        0.343881        0.589715
H       -2.008012        0.341712       -1.105858
H       -1.827052       -1.067667       -0.059655
C        1.764279        0.096163       -0.061967
H        2.469419       -0.218142        0.751593
H        2.195029       -0.376229       -1.070185
H        1.744109        1.083324       -0.168581
N        0.422904       -0.468663        0.051029
N       -0.402965        0.385884        0.121528
10
  Step 35: 35.0 fs
C       -1.802602       -0.006225       -0.051225
H       -2.494228        0.280380        0.591157
H       -1.954875        0.348091       -1.115414
H       -1.788816       -1.053669       -0.005024
C        1.758023        0.094499       -0.057011
H        2.455078       -0.222963        0.756189
H        2.194953       -0.381433       -1.100736
H        1.735181        1.088508       -0.170541
N        0.423025       -0.467825        0.048335
N       -0.395381        0.388012        0.119493
10
  Step 36: 36.0 fs
C       -1.811290       -0.005307       -0.055870
H       -2.484077        0.242013        0.624945
H       -1.907286        0.351137       -1.115035
H       -1.753856       -1.061462        0.045147
C        1.753858        0.088840       -0.053631
H        2.434915       -0.228016        0.757083
H        2.187082       -0.376972       -1.107741
H        1.725026        1.135341       -0.174843
N        0.423990       -0.469667        0.045578
N       -0.389254        0.393693        0.118013
10
  Step 37: 37.0 fs
C       -1.816401       -0.006107       -0.063659
H       -2.503152        0.229576        0.689429
H       -1.869721        0.350350       -1.106514
H       -1.722762       -1.086549        0.087550
C        1.751682        0.081368       -0.052362
H        2.411595       -0.233904        0.756267
H        2.171881       -0.362955       -1.090371
H        1.714627        1.198388       -0.178356
N        0.425574       -0.474003        0.042810
N       -0.384639        0.402755        0.117124
10
  Step 38: 38.0 fs
C       -1.818998       -0.008897       -0.072141
H       -2.533119        0.235803        0.763102
H       -1.845932        0.346469       -1.094723
H       -1.697029       -1.118352        0.119123
C        1.751168        0.074191       -0.053486
H        2.388608       -0.241340        0.756892
H        2.151306       -0.340974       -1.051602
H        1.705060        1.254139       -0.178153
N        0.427358       -0.480295        0.040093
N       -0.381340        0.414652        0.116800
10
  Step 39: 39.0 fs
C       -1.820047       -0.013939       -0.078797
H       -2.557635        0.253440        0.824973
H       -1.838472        0.341076       -1.086222
H       -1.678530       -1.146445        0.137538
C        1.751823        0.068708       -0.056699
H        2.369104       -0.250751        0.761941
H        2.129390       -0.314575       -0.999680
H        1.697172        1.288810       -0.172664
N        0.428823       -0.487773        0.037495
N       -0.379021        0.428574        0.116970
10
  Step 40: 40.0 fs
C       -1.819975       -0.021340       -0.082010
H       -2.568217        0.277280        0.862809
H       -1.848547        0.335623       -1.086244
H       -1.668729       -1.163609        0.141640
C        1.753000        0.065867       -0.060791
H        2.354691       -0.261879        0.772601
H        2.113172       -0.290212       -0.950567
H        1.691561        1.296155       -0.161422
N        0.429446       -0.495576        0.035069
N       -0.377323        0.443586        0.117528
10
  Step 41: 41.0 fs
C       -1.818922       -0.030855       -0.081198
H       -2.561705        0.303573        0.871264
H       -1.876011        0.330285       -1.095445
H       -1.668255       -1.166538        0.131615
C        1.753968        0.066326       -0.063758
H        2.345061       -0.273693        0.787446
H        2.112006       -0.276548       -0.926070
H        1.688597        1.274869       -0.144666
N        0.428797       -0.502877        0.032846
N       -0.375941        0.458751        0.118337
10
  Step 42: 42.0 fs
C       -1.816961       -0.041834       -0.076664
H       -2.537910        0.329436        0.849402
H       -1.919308        0.323650       -1.109206
H       -1.676801       -1.155735        0.108954
C        1.754344        0.070088       -0.064092
H        2.338733       -0.284804        0.803212
H        2.131770       -0.278921       -0.939387
H        1.688364        1.227963       -0.123124
N        0.426593       -0.508969        0.030816
N       -0.374670        0.473215        0.119236
10
  Step 43: 43.0 fs
C       -1.814185       -0.053248       -0.069332
H       -2.498946        0.352791        0.799931
H       -1.975369        0.313567       -1.120120
H       -1.693076       -1.136034        0.076433
C        1.754554        0.075930       -0.062133
H        2.334116       -0.294020        0.816336
H        2.168429       -0.293700       -0.980690
H        1.690517        1.164408       -0.097991
N        0.422720       -0.513297        0.028941
N       -0.373413        0.486249        0.120055
10
  Step 44: 44.0 fs
C       -1.810621       -0.063847       -0.060545
H       -2.450106        0.373168        0.730352
H       -2.039781        0.298329       -1.121457
H       -1.714968       -1.116777        0.037872
C        1.755474        0.081466       -0.059236
H        2.330113       -0.300702        0.824039
H        2.211911       -0.312209       -1.028187
H        1.694094        1.102535       -0.070964
N        0.417226       -0.515451        0.027158
N       -0.372163        0.497254        0.120624
10
  Step 45: 45.0 fs
C       -1.805993       -0.072540       -0.052012
H       -2.401631        0.393511        0.655089
H       -2.107371        0.277354       -1.109331
H       -1.740124       -1.109886       -0.002564
C        1.757815        0.083735       -0.056493
H        2.326356       -0.304924        0.824949
H        2.253258       -0.327087       -1.064624
H        1.697576        1.069531       -0.043736
N        0.410307       -0.515162        0.025391
N       -0.370985        0.505772        0.120780
10
  Step 46: 46.0 fs
C       -1.799563       -0.079131       -0.045652
H       -2.369028        0.421957        0.595280
H       -2.172883        0.251360       -1.083570
H       -1.766926       -1.123266       -0.041212
C        1.761886        0.080776       -0.054549
H        2.323303       -0.307536        0.819446
H        2.286658       -0.333925       -1.080754
H        1.699942        1.084468       -0.017139
N        0.402278       -0.512310        0.023563
N       -0.370010        0.511498        0.120367
10
  Step 47: 47.0 fs
C       -1.790749       -0.084422       -0.042728
H       -2.364941        0.466807        0.568166
H       -2.231773        0.222156       -1.047534
H       -1.794653       -1.154649       -0.074869
C        1.767576        0.073396       -0.053743
H        2.322154       -0.310047        0.809729
H        2.308827       -0.330781       -1.073075
H        1.702041        1.136885        0.008107
N        0.393534       -0.506936        0.021597
N       -0.369419        0.514299        0.119247
10
  Step 48: 48.0 fs
C       -1.780242       -0.088971       -0.042768
H       -2.386101        0.523964        0.572674
H       -2.280861        0.192304       -1.007099
H       -1.822491       -1.193633       -0.100340
C        1.774492        0.064036       -0.054128
H        2.324462       -0.314185        0.799340
H        2.318434       -0.317593       -1.042248
H        1.705779        1.199246        0.030477
N        0.384548       -0.499244        0.019425
N       -0.369429        0.514230        0.117301
10
  Step 49: 49.0 fs
C       -1.769666       -0.092625       -0.044210
H       -2.417621        0.578529        0.595505
H       -2.318662        0.164711       -0.968971
H       -1.848826       -1.228600       -0.114730
C        1.782120        0.054819       -0.055439
H        2.331388       -0.321291        0.792030
H        2.316267       -0.296035       -0.993138
H        1.712612        1.249434        0.048479
N        0.375859       -0.489606        0.016981
N       -0.370289        0.511547        0.114449
10
  Step 50: 50.0 fs
C       -1.760455       -0.095173       -0.045636
H       -2.446080        0.617394        0.624762
H       -2.345134        0.142236       -0.939130
H       -1.871523       -1.251137       -0.116021
C        1.789819        0.047146       -0.056881
H        2.342868       -0.331829        0.790260
H        2.306362       -0.269981       -0.936444
H        1.723229        1.275545        0.061267
N        0.368070       -0.478569        0.014197
N       -0.372280        0.506717        0.110657
10
  Step 51: 51.0 fs
C       -1.753534       -0.096596       -0.046136
H       -2.463518        0.633527        0.653246
H       -2.360938        0.127191       -0.921677
H       -1.888509       -1.256836       -0.103288
C        1.796743        0.041994       -0.056914
H        2.357264       -0.345265        0.794204
H        2.297290       -0.245934       -0.890219
H        1.737753        1.272751        0.068615
N        0.361818       -0.466841        0.011002
N       -0.375705        0.500395        0.105947
10
  Step 52: 52.0 fs
C       -1.749480       -0.096924       -0.045225
H       -2.466049        0.624430        0.676900
H       -2.366549        0.120911       -0.918230
H       -1.898228       -1.244884       -0.076677
C        1.802002        0.039990       -0.053661
H        2.371866       -0.360420        0.801898
H        2.299927       -0.231260       -0.875106
H        1.755882        1.240979        0.070856
N        0.357729       -0.455247        0.007324
N       -0.380855        0.493370        0.100388
10
  Step 53: 53.0 fs
C       -1.748653       -0.096099       -0.042739
H       -2.452414        0.590510        0.693484
H       -2.361798        0.123515       -0.927817
H       -1.899903       -1.217721       -0.037332
C        1.805391        0.041019       -0.046357
H        2.383882       -0.376066        0.810345
H        2.318081       -0.228867       -0.898342
H        1.776921        1.184782        0.068968
N        0.356329       -0.444616        0.003108
N       -0.387955        0.486450        0.094080
10
  Step 54: 54.0 fs
C       -1.751189       -0.093914       -0.038784
H       -2.423588        0.534670        0.702310
H       -2.346116        0.133898       -0.947341
H       -1.893691       -1.181322        0.012686
C        1.807745        0.043892       -0.036135
H        2.391204       -0.391373        0.816697
H        2.343560       -0.235078       -0.945868
H        1.799851        1.115444        0.064743
N        0.357948       -0.435646       -0.001662
N       -0.397079        0.480338        0.087139
10
  Step 55: 55.0 fs
C       -1.756867       -0.090113       -0.033769
H       -2.383579        0.463151        0.705228
H       -2.319252        0.149929       -0.972325
H       -1.880575       -1.144989        0.070588
C        1.810123        0.046451       -0.024870
H        2.392734       -0.406050        0.818995
H        2.364925       -0.244372       -0.996804
H        1.823696        1.054332        0.060837
N        0.362650       -0.428771       -0.006954
N       -0.408072        0.475518        0.079682
10
  Step 56: 56.0 fs
C       -1.764948       -0.084702       -0.028540
H       -2.341052        0.386899        0.708906
H       -2.281999        0.168837       -0.997692
H       -1.861860       -1.119478        0.133061
C        1.813104        0.046120       -0.014109
H        2.388481       -0.420368        0.816645
H        2.374734       -0.252877       -1.035933
H        1.848301        1.029677        0.060109
N        0.370197       -0.424084       -0.012694
N       -0.420507        0.472188        0.071822
10
  Step 57: 57.0 fs
C       -1.774169       -0.078373       -0.024428
H       -2.309582        0.320963        0.726356
H       -2.236660        0.187755       -1.018600
H       -1.838428       -1.111853        0.196082