10
  Step 0: 0.0 fs
C       -1.803703       -0.067739        0.000061
H       -2.311493        0.330678        0.889248
H       -2.311350        0.329960       -0.889474
H       -1.816414       -1.165805        0.000671
C        1.803672        0.067717        0.000026
H        2.310889       -0.329691        0.890035
H        2.312179       -0.330886       -0.888643
H        1.816230        1.165788       -0.000425
N        0.410950       -0.460074       -0.000160
N       -0.410928        0.460085       -0.000119
10
  Step 1: 1.0 fs
C       -1.800898       -0.050426        0.002527
H       -2.264371        0.282439        0.846612
H       -2.299906        0.319949       -0.909662
H       -1.808986       -1.214848       -0.007669
C        1.790034        0.067257        0.002243
H        2.401389       -0.379233        0.904625
H        2.299120       -0.290117       -0.896674
H        1.838289        1.204134       -0.048188
N        0.410067       -0.455682        0.005417
N       -0.412673        0.446845       -0.001623
10
  Step 2: 2.0 fs
C       -1.797041       -0.035777        0.002662
H       -2.232433        0.246414        0.829207
H       -2.288303        0.310469       -0.927375
H       -1.801755       -1.247812       -0.016198
C        1.777688        0.067302        0.005288
H        2.479454       -0.419910        0.905396
H        2.285827       -0.252686       -0.906822
H        1.858470        1.231589       -0.091281
N        0.409511       -0.451897        0.011097
N       -0.414610        0.434374       -0.003110
10
  Step 3: 3.0 fs
C       -1.791358       -0.025365       -0.001423
H       -2.227145        0.230428        0.857026
H       -2.276735        0.302317       -0.940345
H       -1.794992       -1.257327       -0.024909
C        1.767617        0.068237        0.009241
H        2.537164       -0.446888        0.886883
H        2.271726       -0.221273       -0.919957
H        1.874795        1.242117       -0.125486
N        0.409572       -0.449291        0.016972
N       -0.416924        0.423392       -0.004575
10
  Step 4: 4.0 fs
C       -1.784445       -0.019384       -0.008929
H       -2.243410        0.230998        0.919336
H       -2.266021        0.296768       -0.947542
H       -1.788940       -1.241545       -0.033753
C        1.760523        0.070211        0.013780
H        2.570164       -0.458013        0.848321
H        2.255775       -0.197668       -0.935613
H        1.885636        1.234160       -0.147504
N        0.410462       -0.448332        0.023126
N       -0.419703        0.414513       -0.006029
10
  Step 5: 5.0 fs
C       -1.777618       -0.017363       -0.017438
H       -2.267231        0.240190        0.987544
H       -2.257505        0.295479       -0.949441
H       -1.783877       -1.202487       -0.042595
C        1.756846        0.073137        0.018404
H        2.576668       -0.452848        0.791584
H        2.236738       -0.182804       -0.952549
H        1.889969        1.209747       -0.155160
N        0.412258       -0.449316        0.029639
N       -0.422871        0.408195       -0.007496
10
  Step 6: 6.0 fs
C       -1.771876       -0.018674       -0.025045
H       -2.288055        0.252435        1.039933
H       -2.252675        0.300183       -0.947449
H       -1.780202       -1.146393       -0.051173
C        1.756680        0.076692        0.022526
H        2.557646       -0.432722        0.720997
H        2.213571       -0.176785       -0.969455
H        1.887530        1.174423       -0.147634
N        0.414878       -0.452330        0.036576
N       -0.426171        0.404690       -0.008989
10
  Step 7: 7.0 fs
C       -1.767764       -0.022321       -0.030750
H       -2.300495        0.264732        1.065625
H       -2.252662        0.312245       -0.942997
H       -1.778461       -1.085732       -0.059228
C        1.759562        0.080370        0.025410
H        2.518818       -0.402005        0.644709
H        2.185701       -0.178836       -0.985408
H        1.878933        1.137803       -0.125730
N        0.418087       -0.457233        0.043986
N       -0.429185        0.404021       -0.010508
10
  Step 8: 8.0 fs
C       -1.765557       -0.026633       -0.034170
H       -2.302347        0.275395        1.060662
H       -2.257763        0.332137       -0.936691
H       -1.779316       -1.040649       -0.066814
C        1.764154        0.083726        0.025951
H        2.474558       -0.370634        0.577172
H        2.153145       -0.187240       -0.999910
H        1.865497        1.113056       -0.091759
N        0.421546       -0.463685        0.051897
N       -0.431413        0.405977       -0.012043
10
  Step 9: 9.0 fs
C       -1.765373       -0.029684       -0.035303
H       -2.293276        0.283452        1.025312
H       -2.267241        0.359047       -0.928072
H       -1.783417       -1.032612       -0.074568
C        1.768149        0.086870        0.022555
H        2.449799       -0.355350        0.539355
H        2.116568       -0.199414       -1.012658
H        1.848623        1.112474       -0.048522
N        0.424864       -0.471199        0.060314
N       -0.432360        0.410137       -0.013571
10
  Step 10: 10.0 fs
C       -1.767203       -0.030764       -0.034489
H       -2.274637        0.288694        0.963703
H       -2.279525        0.390899       -0.916154
H       -1.791048       -1.066850       -0.083275
C        1.769720        0.090330        0.014141
H        2.464004       -0.369240        0.545649
H        2.077386       -0.212320       -1.023492
H        1.829141        1.139095        0.001928
N        0.427638       -0.479202        0.069212
N       -0.431620        0.415907       -0.015056
10
  Step 11: 11.0 fs
C       -1.770805       -0.030998       -0.032572
H       -2.250493        0.292379        0.885856
H       -2.292637        0.424783       -0.900316
H       -1.801836       -1.126153       -0.093041
C        1.769581        0.094031        0.001700
H        2.506753       -0.405268        0.586157
H        2.037822       -0.223084       -1.032704
H        1.807504        1.183140        0.057780
N        0.429483       -0.487108        0.078530
N       -0.428949        0.422606       -0.016463
10
  Step 12: 12.0 fs
C       -1.775483       -0.032176       -0.031152
H       -2.229550        0.298668        0.811192
H       -2.304638        0.457545       -0.880983
H       -1.815046       -1.187229       -0.103221
C        1.769601        0.097598       -0.012546
H        2.553248       -0.445951        0.638519
H        2.000747       -0.229503       -1.041288
H        1.784494        1.228521        0.116010
N        0.430110       -0.494378        0.088183
N       -0.424299        0.429539       -0.017751
10
  Step 13: 13.0 fs
C       -1.780044       -0.035839       -0.032431
H       -2.224923        0.315230        0.767248
H       -2.314029        0.486394       -0.859857
H       -1.829988       -1.233174       -0.112862
C        1.770892        0.100951       -0.026632
H        2.586679       -0.478701        0.685480
H        1.969210       -0.230237       -1.050900
H        1.761417        1.261302        0.172400
N        0.429370       -0.500559        0.098070
N       -0.417814        0.436076       -0.018883
10
  Step 14: 14.0 fs
C       -1.783637       -0.042717       -0.037626
H       -2.244402        0.347007        0.770779
H       -2.320014        0.509357       -0.839584
H       -1.846074       -1.254792       -0.121115
C        1.773732        0.104152       -0.039169
H        2.599840       -0.497458        0.717288
H        1.945782       -0.224632       -1.063354
H        1.739827        1.272993        0.222589
N        0.427262       -0.505311        0.108082
N       -0.409777        0.441701       -0.019824
10
  Step 15: 15.0 fs
C       -1.786663       -0.052169       -0.045494
H       -2.280123        0.387217        0.809664
H       -2.322531        0.525435       -0.822957
H       -1.862714       -1.248669       -0.127501
C        1.777990        0.107174       -0.049255
H        2.590914       -0.499994        0.728930
H        1.932065       -0.212319       -1.079629
H        1.721224        1.260395        0.262938
N        0.423922       -0.508424        0.118098
N       -0.400576        0.446037       -0.020561
10
  Step 16: 16.0 fs
C       -1.790027       -0.062746       -0.053820
H       -2.317778        0.423352        0.859817
H       -2.322043        0.534459       -0.812051
H       -1.879349       -1.216405       -0.131940
C        1.783396        0.109812       -0.056432
H        2.560951       -0.486249        0.718254
H        1.928525       -0.192883       -1.099017
H        1.706855        1.224723        0.290979
N        0.419587       -0.509827        0.127989
N       -0.390673        0.448851       -0.021097
10
  Step 17: 17.0 fs
C       -1.794249       -0.072876       -0.061002
H       -2.347376        0.446400        0.903774
H       -2.319265        0.536857       -0.807926
H       -1.895666       -1.165479       -0.134726
C        1.789597        0.111676       -0.060705
H        2.513459       -0.458146        0.685686
H        1.934609       -0.165877       -1.119114
H        1.697469        1.171686        0.305890
N        0.414566       -0.509590        0.137628
N       -0.380587        0.450053       -0.021462
10
  Step 18: 18.0 fs
C       -1.799389       -0.080763       -0.066147
H       -2.364111        0.452078        0.932259
H       -2.314943        0.533471       -0.810863
H       -1.912002       -1.111492       -0.136639
C        1.796060        0.112222       -0.062678
H        2.455798       -0.420858        0.635763
H        1.948999       -0.131119       -1.136602
H        1.692930        1.112571        0.309225
N        0.409218       -0.507911        0.146891
N       -0.370863        0.449685       -0.021715
10
  Step 19: 19.0 fs
C       -1.805228       -0.084304       -0.068765
H       -2.366273        0.439168        0.940936
H       -2.309706        0.525419       -0.820683
H       -1.929626       -1.077421       -0.138976
C        1.801823        0.110992       -0.063809
H        2.402171       -0.385503        0.580568
H        1.969912       -0.089054       -1.148412
H        1.691903        1.064405        0.305488
N        0.403939       -0.505100        0.155674
N       -0.362045        0.447915       -0.021944
10
  Step 20: 20.0 fs
C       -1.811468       -0.082025       -0.068635
H       -2.353958        0.408454        0.928437
H       -2.304043        0.513956       -0.836987
H       -1.949734       -1.081460       -0.142954
C        1.805284        0.108166       -0.066416
H        2.375135       -0.370718        0.541955
H        1.995393       -0.041003       -1.152746
H        1.692345        1.045129        0.300865
N        0.399159       -0.501554        0.163895
N       -0.354650        0.445028       -0.022259
10
  Step 21: 21.0 fs
C       -1.817960       -0.074541       -0.065908
H       -2.328942        0.362704        0.896371
H       -2.298273        0.500274       -0.859127
H       -1.971007       -1.119500       -0.148581
C        1.805091        0.104622       -0.072147
H        2.392917       -0.391868        0.538272
H        2.023550        0.010838       -1.149969
H        1.693345        1.061964        0.299062
N        0.395316       -0.497711        0.171495
N       -0.349140        0.441406       -0.022784
10
  Step 22: 22.0 fs
C       -1.824582       -0.064167       -0.061305
H       -2.295796        0.307452        0.851423
H       -2.292428        0.485154       -0.885770
H       -1.989761       -1.170243       -0.154822
C        1.801908        0.100812       -0.079768
H        2.447178       -0.441579        0.560949
H        2.052761        0.063704       -1.142887
H        1.696303        1.105008        0.298693
N        0.392814       -0.494008        0.178422
N       -0.345914        0.437470       -0.023638
10
  Step 23: 23.0 fs
C       -1.830832       -0.053426       -0.056421
H       -2.263853        0.252008        0.809388
H       -2.286218        0.468818       -0.914411
H       -2.002555       -1.213568       -0.160645
C        1.797608        0.096770       -0.086591
H        2.513975       -0.499084        0.587205
H        2.081724        0.114755       -1.135468
H        1.703420        1.156016        0.296173
N        0.391988       -0.490822        0.184637
N       -0.345276        0.433622       -0.024929
10
  Step 24: 24.0 fs
C       -1.835686       -0.044374       -0.053749
H       -2.247259        0.208164        0.796005
H       -2.279315        0.451301       -0.941497
H       -2.007358       -1.237621       -0.165466
C        1.793667        0.092734       -0.090764
H        2.574747       -0.548698        0.601578
H        2.109196        0.161416       -1.130674
H        1.715932        1.199168        0.289149
N        0.393048       -0.488414        0.190107
N       -0.347396        0.430171       -0.026727
10
  Step 25: 25.0 fs
C       -1.838361       -0.038125       -0.055103
H       -2.255733        0.182778        0.829125
H       -2.271808        0.433077       -0.963449
H       -2.003314       -1.237498       -0.169118
C        1.790980        0.089060       -0.091600
H        2.619426       -0.582400        0.597596
H        2.133543        0.201408       -1.129075
H        1.733794        1.224629        0.277310
N        0.396032       -0.486889        0.194802
N       -0.352260        0.427286       -0.029063
10
  Step 26: 26.0 fs
C       -1.839266       -0.034649       -0.059530
H       -2.283573        0.172716        0.895196
H       -2.264471        0.415454       -0.978007
H       -1.990360       -1.213104       -0.171678
C        1.790118        0.086035       -0.089178
H        2.643163       -0.596796        0.573811
H        2.152624        0.232624       -1.129156
H        1.756114        1.227957        0.261937
N        0.400789       -0.486177        0.198681
N       -0.359648        0.424975       -0.031924
10
  Step 27: 27.0 fs
C       -1.839334       -0.033397       -0.064639
H       -2.317767        0.171806        0.965339
H       -2.258650        0.400479       -0.984764
H       -1.969188       -1.168475       -0.173272
C        1.791448        0.083795       -0.083967
H        2.644089       -0.591094        0.531394
H        2.164187        0.253218       -1.128787
H        1.781573        1.208919        0.245351
N        0.406992       -0.486058        0.201697
N       -0.369146        0.423112       -0.035254
10
  Step 28: 28.0 fs
C       -1.839137       -0.033623       -0.068570
H       -2.348671        0.175991        1.018474
H       -2.255957        0.390512       -0.984821
H       -1.941384       -1.112826       -0.174113
C        1.795087        0.082284       -0.076661
H        2.623051       -0.566851        0.473670
H        2.166377        0.261917       -1.126564
H        1.808722        1.171390        0.230714
N        0.414184       -0.486210        0.203799
N       -0.380194        0.421495       -0.038961
10
  Step 29: 29.0 fs
C       -1.838830       -0.034161       -0.070272
H       -2.371170        0.183006        1.044182
H       -2.257858        0.387620       -0.979970
H       -1.909437       -1.062279       -0.174833
C        1.800714        0.081270       -0.068197
H        2.585220       -0.529301        0.406944
H        2.158031        0.258364       -1.122418
H        1.836229        1.124134        0.222012
N        0.421834       -0.486271        0.204949
N       -0.392129        0.419907       -0.042923
10
  Step 30: 30.0 fs
C       -1.838406       -0.033485       -0.069229
H       -2.382852        0.191390        1.038666
H       -2.265243        0.392888       -0.971731
H       -1.876101       -1.037409       -0.176670
C        1.807212        0.080565       -0.059888
H        2.543941       -0.490484        0.342259
H        2.138745        0.243341       -1.117609
H        1.863208        1.081111        0.223893
N        0.429404       -0.485896        0.205132
N       -0.404240        0.418169       -0.047010
10
  Step 31: 31.0 fs
C       -1.837917       -0.030702       -0.065374
H       -2.382892        0.200120        1.002289
H       -2.278071        0.405918       -0.960735
H       -1.843301       -1.050549       -0.180632
C        1.812419        0.080505       -0.053378
H        2.523450       -0.471315        0.295349
H        2.108818        0.218771       -1.114200
H        1.889518        1.057892        0.240615
N        0.436392       -0.484791        0.204366
N       -0.415808        0.416171       -0.051087
10
  Step 32: 32.0 fs
C       -1.837453       -0.026559       -0.059197
H       -2.372111        0.208752        0.939579
H       -2.295250        0.424820       -0.946781
H       -1.812384       -1.093643       -0.186147
C        1.814364        0.081798       -0.049724
H        2.544890       -0.490221        0.277498
H        2.069242        0.187481       -1.114332
H        1.915513        1.062360        0.273602
N        0.442348       -0.482739        0.202703
N       -0.426160        0.413873       -0.055024
10
  Step 33: 33.0 fs
C       -1.836878       -0.022797       -0.051856
H       -2.354289        0.217996        0.861548
H       -2.314778        0.446667       -0.929407
H       -1.785339       -1.146577       -0.191415
C        1.813639        0.084285       -0.048278
H        2.599427       -0.541346        0.283702
H        2.021755        0.152705       -1.119497
H        1.941109        1.088209        0.319331
N        0.446876       -0.479615        0.200227
N       -0.434732        0.411289       -0.058699
10
  Step 34: 34.0 fs
C       -1.835574       -0.021065       -0.045307
H       -2.338590        0.230928        0.789194
H       -2.334192        0.468243       -0.908713
H       -1.764583       -1.191740       -0.194602
C        1.812435        0.087227       -0.047547
H        2.660017       -0.603111        0.300947
H        1.968862        0.117539       -1.129646
H        1.965312        1.120529        0.370466
N        0.449657       -0.475391        0.197057
N       -0.441121        0.408478       -0.062012
10
  Step 35: 35.0 fs
C       -1.832487       -0.022630       -0.041967
H       -2.339001        0.253369        0.750561
H       -2.351143        0.486733       -0.885860
H       -1.752163       -1.218557       -0.194356
C        1.812358        0.090210       -0.046431
H        2.706583       -0.658412        0.319476
H        1.913664        0.084666       -1.142779
H        1.986715        1.145345        0.419075
N        0.450488       -0.470129        0.193347
N       -0.445096        0.405546       -0.064889
10
  Step 36: 36.0 fs
C       -1.827143       -0.028054       -0.042941
H       -2.362400        0.288426        0.759694
H       -2.363896        0.500161       -0.862967
H       -1.749400       -1.222410       -0.189910
C        1.814094        0.093059       -0.044452
H        2.729407       -0.698088        0.333893
H        1.859570        0.056393       -1.155441
H        2.004122        1.153942        0.458863
N        0.449307       -0.463977        0.189274
N       -0.446582        0.402661       -0.067292
10
  Step 37: 37.0 fs
C       -1.820549       -0.036767       -0.046824
H       -2.398017        0.329839        0.801817
H       -2.371563        0.507495       -0.842421
H       -1.756785       -1.203307       -0.181143
C        1.817753        0.095592       -0.041545
H        2.724982       -0.717996        0.341418
H        1.810036        0.034705       -1.163895
H        2.016839        1.142819        0.485822
N        0.446201       -0.457168        0.185034
N       -0.445647        0.400060       -0.069232
10
  Step 38: 38.0 fs
C       -1.814169       -0.047489       -0.051448
H       -2.429516        0.367389        0.853271
H       -2.374036        0.508493       -0.826083
H       -1.774009       -1.165987       -0.168569
C        1.823120        0.097521       -0.037853
H        2.693191       -0.716912        0.340768
H        1.768330        0.021281       -1.165270
H        2.024699        1.112702        0.498176
N        0.441413       -0.450022        0.180838
N       -0.442516        0.398046       -0.070764
10
  Step 39: 39.0 fs
C       -1.808954       -0.058659       -0.055281
H       -2.446374        0.393804        0.897972
H       -2.371828        0.503547       -0.815112
H       -1.800024       -1.121412       -0.153326
C        1.829729        0.098452       -0.033660
H        2.636735       -0.696187        0.331893
H        1.737213        0.017348       -1.158291
H        2.028172        1.068454        0.496580
N        0.435324       -0.442940        0.176901
N       -0.437581        0.396962       -0.071990
10
  Step 40: 40.0 fs
C       -1.805300       -0.068400       -0.057429
H       -2.444045        0.405538        0.927613
H       -2.365916        0.493590       -0.810256
H       -1.833386       -1.087560       -0.137033
C        1.836752        0.097957       -0.029460
H        2.562512       -0.661341        0.316614
H        1.718701        0.023585       -1.143592
H        2.028629        1.019848        0.484784
N        0.428427       -0.436371        0.173432
N       -0.431384        0.397142       -0.073044
10
  Step 41: 41.0 fs
C       -1.803238       -0.074922       -0.057402
H       -2.421493        0.401554        0.938431
H       -2.357567        0.479958       -0.812134
H       -1.872875       -1.083333       -0.121070
C        1.842762        0.095884       -0.026099
H        2.484555       -0.625629        0.300198
H        1.713878        0.040013       -1.123794
H        2.028431        0.981473        0.469848
N        0.421290       -0.430768        0.170609
N       -0.424576        0.398879       -0.074085
10
  Step 42: 42.0 fs
C       -1.802633       -0.077715       -0.055037
H       -2.379804        0.382562        0.929426
H       -2.348114        0.464112       -0.821236
H       -1.917034       -1.113555       -0.105690
C        1.845678        0.092969       -0.024714
H        2.425382       -0.612905        0.292714
H        1.722829        0.065902       -1.103409
H        2.030317        0.968333        0.460046
N        0.414504       -0.426532        0.168562
N       -0.417831        0.402384       -0.075279
10
  Step 43: 43.0 fs
C       -1.803382       -0.077981       -0.050514
H       -2.322138        0.351028        0.902519
H       -2.338613        0.447149       -0.837473
H       -1.962558       -1.163787       -0.090429
C        1.843918        0.090616       -0.025875
H        2.403893       -0.645101        0.303721
H        1.744744        0.099814       -1.088477
H        2.035720        0.985957        0.459596
N        0.408597       -0.423941        0.167350
N       -0.411751        0.407753       -0.076776
10
  Step 44: 44.0 fs
C       -1.805316       -0.077526       -0.044505
H       -2.254823        0.311985        0.864720
H       -2.329529        0.429368       -0.859469
H       -2.004664       -1.214203       -0.075191
C        1.838196        0.088997       -0.028473
H        2.414781       -0.714749        0.330132
H        1.778274        0.139866       -1.084985
H        2.043656        1.025325        0.465934
N        0.403958       -0.423099        0.166943
N       -0.406786        0.414924       -0.078694
10
  Step 45: 45.0 fs
C       -1.807912       -0.077954       -0.038512
H       -2.188775        0.274298        0.831971
H       -2.320780        0.410365       -0.884198
H       -2.038945       -1.250669       -0.060381
C        1.830529        0.087156       -0.030644
H        2.438542       -0.793529        0.359790
H        1.821943        0.183850       -1.095289
H        2.051667        1.070302        0.473441
N        0.400800       -0.423911        0.167218
N       -0.403179        0.423655       -0.081106
10
  Step 46: 46.0 fs
C       -1.810306       -0.080566       -0.034845
H       -2.137932        0.249918        0.828970
H       -2.312200        0.389679       -0.907484
H       -2.062248       -1.266069       -0.046561
C        1.822500        0.084500       -0.031374
H        2.460639       -0.858813        0.383100
H        1.874021        0.229054       -1.115197
H        2.057312        1.106744        0.477729
N        0.399165       -0.426095        0.167974
N       -0.400958        0.433528       -0.084035
10
  Step 47: 47.0 fs
C       -1.812014       -0.085918       -0.034981
H       -2.110082        0.246063        0.870686
H       -2.304085        0.367494       -0.925312
H       -2.072602       -1.258434       -0.034277
C        1.815086        0.080987       -0.030658
H        2.473882       -0.898822        0.395318
H        1.931804        0.272054       -1.135780
H        2.058831        1.125749        0.476880
N        0.398926       -0.429215        0.168960
N       -0.399966        0.443987       -0.087460
10
  Step 48: 48.0 fs
C       -1.813394       -0.093348       -0.037777
H       -2.101043        0.258209        0.942187
H       -2.297448        0.344947       -0.935223
H       -2.069106       -1.229971       -0.023959
C        1.808936        0.076791       -0.028941
H        2.475399       -0.908776        0.394833
H        1.991533        0.309227       -1.148112
H        2.055252        1.123318        0.471063
N        0.399820       -0.432751        0.169906
N       -0.399937        0.454404       -0.091316
10
  Step 49: 49.0 fs
C       -1.814905       -0.101518       -0.040887
H       -2.103034        0.277032        1.015592
H       -2.293882        0.323931       -0.936832
H       -2.052112       -1.187382       -0.015719
C        1.804508        0.072072       -0.026722
H        2.464651       -0.887922        0.381843
H        2.048993        0.337405       -1.146253
H        2.046319        1.099427        0.461996
N        0.401504       -0.436163        0.170547
N       -0.400587        0.464145       -0.095500
10
  Step 50: 50.0 fs
C       -1.816560       -0.108841       -0.042576
H       -2.110951        0.295608        1.071060
H       -2.295217        0.306613       -0.931469
H       -2.023659       -1.143473       -0.009083
C        1.802016        0.066898       -0.024447
H        2.443134       -0.839035        0.358075
H        2.100270        0.354453       -1.128157
H        2.032536        1.057945        0.452848
N        0.403604       -0.438962        0.170645
N       -0.401666        0.472644       -0.099889
10
  Step 51: 51.0 fs
C       -1.818034       -0.113516       -0.041936
H       -2.122147        0.309975        1.098773
H       -2.303110        0.294813       -0.921366
H       -1.987229       -1.116878       -0.002984
C        1.801264        0.061317       -0.022625
H        2.415611       -0.770250        0.327530
H        2.142242        0.359562       -1.095350
H        2.015359        1.007356        0.448534
N        0.405762       -0.440753        0.169996
N       -0.402969        0.479449       -0.104364
10
  Step 52: 52.0 fs
C       -1.818996       -0.114082       -0.038590
H       -2.135168        0.317921        1.095147
H       -2.318569        0.289372       -0.908657
H       -1.945787       -1.123757        0.003674
C        1.801368        0.055685       -0.021967
H        2.392871       -0.698781        0.297998
H        2.172931        0.353506       -1.052582
H        1.997002        0.960457        0.455573
N        0.407667       -0.441270        0.168437
N       -0.404322        0.484260       -0.108829
10
  Step 53: 53.0 fs
C       -1.819398       -0.110559       -0.032484
H       -2.149112        0.318368        1.060565
H       -2.341472        0.289739       -0.894555
H       -1.899852       -1.163256        0.011015
C        1.800664        0.051047       -0.023282
H        2.393100       -0.651610        0.281409
H        2.191910        0.338894       -1.007721
H        1.979569        0.930397        0.480305
N        0.409082       -0.440391        0.165854
N       -0.405571        0.486943       -0.113220
10
  Step 54: 54.0 fs
C       -1.819344       -0.104466       -0.023907
H       -2.163687        0.311520        0.999468
H       -2.370278        0.293992       -0.879127
H       -1.849289       -1.217391        0.018131
C        1.797791        0.048398       -0.026584
H        2.430141       -0.648560        0.286926
H        2.200628        0.320064       -0.971308
H        1.963687        0.922660        0.524685
N        0.409847       -0.438147        0.162184
N       -0.406588        0.487523       -0.117509
10
  Step 55: 55.0 fs
C       -1.818792       -0.097662       -0.013746
H       -2.180058        0.299848        0.922712
H       -2.402099        0.299312       -0.861780
H       -1.795733       -1.265868        0.024085
C        1.793400        0.047207       -0.030170
H        2.493992       -0.680163        0.310945
H        2.202209        0.302156       -0.954480
H        1.948377        0.931138        0.583276
N        0.409870       -0.434701        0.157419
N       -0.407315        0.486168       -0.121688
10
  Step 56: 56.0 fs
C       -1.817356       -0.091787       -0.003755
H       -2.202686        0.289704        0.850774
H       -2.433299        0.302745       -0.842216
H       -1.742294       -1.295012        0.028583
C        1.789307        0.046374       -0.031762
H        2.561413       -0.722994        0.342607
H        2.199562        0.288968       -0.963509
H        1.932510        0.943966        0.645739
N        0.409128       -0.430331        0.151613
N       -0.407787        0.483167       -0.125760
10
  Step 57: 57.0 fs
C       -1.814289       -0.088224        0.003794
H       -2.239723        0.290675        0.810417
H       -2.460348        0.301896       -0.821208
H       -1.692463       -1.298133        0.031922