10
  Step 0: 0.0 fs
C       -1.803704       -0.067741        0.000068
H       -2.311493        0.330679        0.889264
H       -2.311369        0.329960       -0.889467
H       -1.816440       -1.165808        0.000686
C        1.803670        0.067712        0.000030
H        2.310877       -0.329683        0.890054
H        2.312202       -0.330871       -0.888632
H        1.816224        1.165784       -0.000409
N        0.410954       -0.460071       -0.000168
N       -0.410925        0.460087       -0.000127
10
  Step 1: 1.0 fs
C       -1.807687       -0.072190        0.007556
H       -2.259028        0.324957        0.819553
H       -2.283735        0.320125       -0.907673
H       -1.782191       -1.110192        0.010025
C        1.796692        0.049657        0.007976
H        2.291048       -0.259089        0.847504
H        2.264012       -0.325107       -0.918678
H        1.823774        1.210374        0.030299
N        0.414507       -0.447021       -0.005665
N       -0.408962        0.454735        0.000815
10
  Step 2: 2.0 fs
C       -1.810079       -0.075911        0.012423
H       -2.224060        0.332688        0.778692
H       -2.256656        0.309316       -0.924406
H       -1.749490       -1.077296        0.019695
C        1.788867        0.034208        0.013736
H        2.285278       -0.202470        0.828460
H        2.217524       -0.318843       -0.945853
H        1.830038        1.240059        0.058218
N        0.418074       -0.434704       -0.010993
N       -0.407280        0.450041        0.001804
10
  Step 3: 3.0 fs
C       -1.809691       -0.078533        0.012554
H       -2.220038        0.366068        0.789292
H       -2.230981        0.296777       -0.938443
H       -1.718993       -1.084533        0.030532
C        1.779592        0.022808        0.015638
H        2.304553       -0.168210        0.849973
H        2.174679       -0.311769       -0.967226
H        1.833736        1.248326        0.080800
N        0.421667       -0.423831       -0.015987
N       -0.406159        0.446636        0.002888
10
  Step 4: 4.0 fs
C       -1.806859       -0.079923        0.008845
H       -2.241177        0.418868        0.839040
H       -2.208075        0.282324       -0.949593
H       -1.692074       -1.128284        0.043609
C        1.769665        0.015707        0.014392
H        2.343164       -0.155070        0.901565
H        2.137794       -0.304099       -0.981060
H        1.833862        1.233812        0.096139
N        0.425226       -0.415016       -0.020506
N       -0.405833        0.445034        0.004116
10
  Step 5: 5.0 fs
C       -1.802561       -0.080414        0.003843
H       -2.272084        0.473414        0.897659
H       -2.189665        0.266341       -0.958669
H       -1.671497       -1.187911        0.059264
C        1.760688        0.012680        0.012031
H        2.385560       -0.158741        0.958226
H        2.109369       -0.296602       -0.987287
H        1.829880        1.198373        0.103180
N        0.428562       -0.408734       -0.024441
N       -0.406459        0.445559        0.005532
10
  Step 6: 6.0 fs
C       -1.797416       -0.080692       -0.000520
H       -2.301565        0.516488        0.943514
H       -2.177423        0.249466       -0.966866
H       -1.659727       -1.242669        0.076843
C        1.753927        0.013344        0.010131
H        2.419476       -0.175934        1.001224
H        2.091713       -0.290433       -0.987177
H        1.821894        1.147106        0.101867
N        0.431363       -0.405273       -0.027703
N       -0.408075        0.448308        0.007179
10
  Step 7: 7.0 fs
C       -1.791752       -0.081331       -0.003233
H       -2.323832        0.541590        0.966110
H       -2.172444        0.232189       -0.975005
H       -1.657803       -1.279196        0.095248
C        1.750050        0.016939        0.009486
H        2.438398       -0.204128        1.021098
H        2.086523       -0.286846       -0.982625
H        1.810803        1.090163        0.093310
N        0.433238       -0.404710       -0.030231
N       -0.410564        0.453148        0.009079
10
  Step 8: 8.0 fs
C       -1.785834       -0.082630       -0.003908
H       -2.336270        0.546287        0.961506
H       -2.174865        0.214619       -0.982865
H       -1.665511       -1.290849        0.113435
C        1.749263        0.022039        0.010334
H        2.439570       -0.240818        1.014246
H        2.094526       -0.286836       -0.975341
H        1.798286        1.044691        0.079798
N        0.433796       -0.406897       -0.031994
N       -0.413652        0.459758        0.011224
10
  Step 9: 9.0 fs
C       -1.779985       -0.084645       -0.002554
H       -2.337993        0.530396        0.929391
H       -2.183768        0.196502       -0.989109
H       -1.681783       -1.275729        0.130632
C        1.751472        0.026768        0.012559
H        2.422539       -0.283255        0.980637
H        2.115241       -0.290774       -0.966220
H        1.786280        1.031235        0.064089
N        0.432727       -0.411478       -0.032997
N       -0.416952        0.467680        0.013577
10
  Step 10: 10.0 fs
C       -1.774549       -0.087226        0.000505
H       -2.329727        0.495765        0.872597
H       -2.197387        0.177442       -0.991879
H       -1.704895       -1.236201        0.146451
C        1.756388        0.030014        0.015812
H        2.389015       -0.328702        0.923613
H        2.146929       -0.298175       -0.955274
H        1.776023        1.059144        0.048030
N        0.429855       -0.417935       -0.033285
N       -0.420031        0.476383        0.016077
10
  Step 11: 11.0 fs
C       -1.769754       -0.090057        0.004564
H       -2.314871        0.447491        0.798566
H       -2.213498        0.157148       -0.989720
H       -1.732459       -1.179914        0.161069
C        1.763457        0.032404        0.019413
H        2.343996       -0.375454        0.851555
H        2.186729       -0.307720       -0.942089
H        1.768074        1.115995        0.032469
N        0.425159       -0.425630       -0.032939
N       -0.422478        0.485302        0.018647
10
  Step 12: 12.0 fs
C       -1.765417       -0.092686        0.008271
H       -2.302142        0.396497        0.722605
H       -2.229829        0.135571       -0.982331
H       -1.761495       -1.121996        0.175634
C        1.771661        0.035528        0.022093
H        2.297380       -0.424947        0.780204
H        2.231021       -0.317464       -0.926500
H        1.763233        1.179259        0.018586
N        0.418779       -0.433870       -0.032073
N       -0.423978        0.493883        0.021208
10
  Step 13: 13.0 fs
C       -1.760639       -0.094685        0.009532
H       -2.307772        0.360740        0.669018
H       -2.244422        0.112932       -0.970926
H       -1.789034       -1.084303        0.192523
C        1.779657        0.040923        0.022196
H        2.262322       -0.483108        0.730352
H        2.276001       -0.325232       -0.909085
H        1.762595        1.230563        0.008169
N        0.410985       -0.441977       -0.030828
N       -0.424360        0.501624        0.023701
10
  Step 14: 14.0 fs
C       -1.754472       -0.095737        0.006771
H       -2.346562        0.355324        0.657099
H       -2.255932        0.089721       -0.958233
H       -1.812997       -1.084652        0.214263
C        1.786605        0.049330        0.018847
H        2.246106       -0.554111        0.714435
H        2.318344       -0.329089       -0.891197
H        1.767034        1.259236        0.003004
N        0.402133       -0.449351       -0.029366
N       -0.423600        0.508106        0.026085
10
  Step 15: 15.0 fs
C       -1.747643       -0.095657        0.000971
H       -2.412079        0.376361        0.679466
H       -2.263832        0.066687       -0.948066
H       -1.831856       -1.120772        0.240656
C        1.792733        0.060022        0.012802
H        2.243686       -0.630156        0.726168
H        2.355564       -0.327713       -0.874453
H        1.776898        1.260922        0.004368
N        0.392639       -0.455514       -0.027849
N       -0.421782        0.513036        0.028331
10
  Step 16: 16.0 fs
C       -1.742117       -0.094794       -0.005355
H       -2.482945        0.408545        0.713818
H       -2.268278        0.044688       -0.944102
H       -1.843819       -1.173040        0.268155
C        1.798649        0.071351        0.005499
H        2.245655       -0.696215        0.751063
H        2.386065       -0.320605       -0.860201
H        1.792012        1.236433        0.012985
N        0.382970       -0.460142       -0.026427
N       -0.419059        0.516252        0.030415
10
  Step 17: 17.0 fs
C       -1.739451       -0.093838       -0.010245
H       -2.541965        0.439870        0.743472
H       -2.269555        0.024404       -0.948453
H       -1.847440       -1.221107        0.292581
C        1.804706        0.081596       -0.001916
H        2.245671       -0.740382        0.777744
H        2.409087       -0.308121       -0.849501
H        1.811772        1.192022        0.029218
N        0.373616       -0.463068       -0.025221
N       -0.415659        0.517722        0.032317
10
  Step 18: 18.0 fs
C       -1.740428       -0.093327       -0.012721
H       -2.580168        0.463913        0.759959
H       -2.267469        0.006167       -0.960970
H       -1.842283       -1.251798        0.310984
C        1.810962        0.089029       -0.008717
H        2.240945       -0.756368        0.799466
H        2.424659       -0.291333       -0.843433
H        1.835302        1.140945        0.053437
N        0.365062       -0.464266       -0.024332
N       -0.411873        0.517524        0.034026
10
  Step 19: 19.0 fs
C       -1.745323       -0.093509       -0.012505
H       -2.593845        0.477632        0.759624
H       -2.261180       -0.009992       -0.979455
H       -1.828873       -1.258694        0.321855
C        1.817295        0.091808       -0.014474
H        2.230780       -0.742131        0.812415
H        2.433490       -0.271746       -0.843301
H        1.861792        1.102892        0.086532
N        0.357750       -0.463825       -0.023845
N       -0.408035        0.515834        0.035537
10
  Step 20: 20.0 fs
C       -1.754089       -0.094378       -0.009729
H       -2.582284        0.479812        0.741368
H       -2.249590       -0.024212       -1.000556
H       -1.808448       -1.240285        0.324842
C        1.823478        0.088649       -0.018949
H        2.215780       -0.698915        0.814738
H        2.436751       -0.250929       -0.850545
H        1.890678        1.094647        0.129676
N        0.352062       -0.461927       -0.023837
N       -0.404502        0.512916        0.036853
10
  Step 21: 21.0 fs
C       -1.766364       -0.095709       -0.004822
H       -2.547329        0.470807        0.706226
H       -2.231916       -0.036699       -1.020774
H       -1.782799       -1.199533        0.320785
C        1.829283        0.080083       -0.021966
H        2.197833       -0.631543        0.806842
H        2.435675       -0.230134       -0.866210
H        1.920820        1.115216        0.181893
N        0.348300       -0.458844       -0.024371
N       -0.401629        0.509104        0.037983
10
  Step 22: 22.0 fs
C       -1.781353       -0.097071        0.001429
H       -2.494636        0.453498        0.658469
H       -2.208117       -0.047679       -1.037269
H       -1.754051       -1.144791        0.312084
C        1.834519        0.068389       -0.023487
H        2.180751       -0.549692        0.793277
H        2.430989       -0.210014       -0.889952
H        1.949728        1.147597        0.238043
N        0.346686       -0.454912       -0.025491
N       -0.399743        0.504788        0.038945
10
  Step 23: 23.0 fs
C       -1.797623       -0.097920        0.007634
H       -2.436676        0.435888        0.608377
H       -2.179087       -0.057361       -1.048249
H       -1.724154       -1.091321        0.303248
C        1.838874        0.056360       -0.024101
H        2.171219       -0.468806        0.785569
H        2.422583       -0.190687       -0.919247
H        1.974380        1.174476        0.290889
N        0.347371       -0.450495       -0.027209
N       -0.399111        0.500378        0.039764
10
  Step 24: 24.0 fs
C       -1.812996       -0.098034        0.011650
H       -2.394943        0.433967        0.574667
H       -2.146619       -0.065932       -1.053182
H       -1.694118       -1.058995        0.300382
C        1.841878        0.046344       -0.025099
H        2.177655       -0.406185        0.800537
H        2.409819       -0.172157       -0.949711
H        1.992244        1.186002        0.333928
N        0.350432       -0.445945       -0.029500
N       -0.399904        0.496269        0.040476
10
  Step 25: 25.0 fs
C       -1.825392       -0.097881        0.011607
H       -2.389892        0.464875        0.575753
H       -2.113285       -0.073484       -1.053085
H       -1.664502       -1.060984        0.308088
C        1.843324        0.039436       -0.027191
H        2.204097       -0.370258        0.845529
H        2.392301       -0.154700       -0.976591
H        2.001578        1.179082        0.362503
N        0.355861       -0.441553       -0.032312
N       -0.402154        0.492785        0.041118
10
  Step 26: 26.0 fs
C       -1.834525       -0.097737        0.008061
H       -2.418716        0.525353        0.608061
H       -2.082200       -0.080018       -1.050835
H       -1.637801       -1.092423        0.325863
C        1.843651        0.035403       -0.029393
H        2.245481       -0.357031        0.906919
H        2.370451       -0.138933       -0.996393
H        2.001365        1.154675        0.373864
N        0.363524       -0.437504       -0.035567
N       -0.405745        0.490120        0.041723
10
  Step 27: 27.0 fs
C       -1.841377       -0.097352        0.003487
H       -2.461281        0.593717        0.650409
H       -2.056553       -0.085522       -1.050603
H       -1.618689       -1.136066        0.349051
C        1.843526        0.033556       -0.030100
H        2.292669       -0.359172        0.963497
H        2.345587       -0.125729       -1.007611
H        1.991340        1.116483        0.367265
N        0.373144       -0.433871       -0.039161
N       -0.410428        0.488311        0.042320
10
  Step 28: 28.0 fs
C       -1.846653       -0.096640        0.000032
H       -2.501238        0.651296        0.685185
H       -2.038949       -0.090046       -1.055896
H       -1.611460       -1.175237        0.372382
C        1.843382        0.033170       -0.028268
H        2.338119       -0.371486        1.000213
H        2.319702       -0.116119       -1.010686
H        1.972169        1.071258        0.344347
N        0.384292       -0.430639       -0.042966
N       -0.415869        0.487251        0.042945
10
  Step 29: 29.0 fs
C       -1.850631       -0.095712       -0.001225
H       -2.530055        0.688154        0.703187
H       -2.030847       -0.093743       -1.067389
H       -1.618494       -1.199216        0.391927
C        1.843345        0.033298       -0.023610
H        2.376909       -0.390579        1.009606
H        2.295135       -0.111175       -1.007623
H        1.945659        1.030573        0.309739
N        0.396415       -0.427733       -0.046844
N       -0.421668        0.486728        0.043629
10
  Step 30: 30.0 fs
C       -1.853451       -0.094680       -0.000107
H       -2.543998        0.700210        0.700737
H       -2.032407       -0.096824       -1.082184
H       -1.640272       -1.202852        0.405421
C        1.843362        0.032654       -0.016380
H        2.405939       -0.413635        0.989182
H        2.274172       -0.111834       -1.001291
H        1.914499        1.010665        0.270516
N        0.408880       -0.425055       -0.050656
N       -0.427384        0.486474        0.044395
10
  Step 31: 31.0 fs
C       -1.855247       -0.093588        0.003005
H       -2.541962        0.686819        0.677367
H       -2.042775       -0.099493       -1.095185
H       -1.675867       -1.185107        0.412037
C        1.843380        0.030185       -0.007043
H        2.423374       -0.437975        0.939886
H        2.258568       -0.118639       -0.994475
H        1.881199        1.024936        0.232849
N        0.421018       -0.422519       -0.054272
N       -0.432570        0.486214        0.045254
10
  Step 32: 32.0 fs
C       -1.856154       -0.092379        0.007415
H       -2.524956        0.650201        0.635146
H       -2.060438       -0.101932       -1.101415
H       -1.723173       -1.148833        0.412395
C        1.843394        0.026150        0.003935
H        2.429013       -0.461575        0.866360
H        2.249085       -0.131453       -0.988975
H        1.847472        1.071185        0.198362
N        0.432182       -0.420081       -0.057576
N       -0.436812        0.485691        0.046212
10
  Step 33: 33.0 fs
C       -1.856160       -0.090940        0.012130
H       -2.497363        0.596985        0.579706
H       -2.083492       -0.104332       -1.097624
H       -1.778980       -1.101748        0.408941
C        1.843235        0.022164        0.015756
H        2.425699       -0.484515        0.778534
H        2.245218       -0.149213       -0.985118
H        1.815311        1.132001        0.165935
N        0.441801       -0.417729       -0.060465
N       -0.439765        0.484690        0.047275
10
  Step 34: 34.0 fs
C       -1.854799       -0.089279        0.015711
H       -2.469812        0.541353        0.522391
H       -2.109881       -0.106946       -1.083138
H       -1.839382       -1.057258        0.406256
C        1.842312        0.020208        0.026914
H        2.421202       -0.511044        0.692700
H        2.245305       -0.169922       -0.982095
H        1.787531        1.188205        0.135435
N        0.449438       -0.415478       -0.062847
N       -0.441196        0.483038        0.048458
10
  Step 35: 35.0 fs
C       -1.850869       -0.087871        0.016340
H       -2.461013        0.506306        0.480739
H       -2.137625       -0.110107       -1.060141
H       -1.900890       -1.031585        0.410096
C        1.839738        0.021953        0.035594
H        2.426853       -0.549273        0.627230
H        2.247073       -0.190982       -0.978907
H        1.766946        1.226830        0.108274
N        0.454824       -0.413364       -0.064644
N       -0.441004        0.480612        0.049784
10
  Step 36: 36.0 fs
C       -1.843299       -0.087410        0.012976
H       -2.486576        0.510758        0.468223
H       -2.165105       -0.114209       -1.033542
H       -1.961255       -1.033962        0.423868
C        1.835139        0.028095        0.040807
H        2.448233       -0.603026        0.590851
H        2.248322       -0.209767       -0.975081
H        1.755692        1.241489        0.086385
N        0.457844       -0.411458       -0.065808
N       -0.439225        0.477361        0.051277
10
  Step 37: 37.0 fs
C       -1.833030       -0.087776        0.006803
H       -2.538184        0.548997        0.479599
H       -2.191365       -0.119565       -1.010122
H       -2.018116       -1.058762        0.445401
C        1.829246        0.037883        0.042841
H        2.478140       -0.663968        0.578089
H        2.247386       -0.224141       -0.970609
H        1.755016        1.230815        0.071538
N        0.458527       -0.409879       -0.066324
N       -0.435997        0.473316        0.052953
10
  Step 38: 38.0 fs
C       -1.822364       -0.088427        0.000142
H       -2.592691        0.600738        0.499768
H       -2.216021       -0.126227       -0.996216
H       -2.067746       -1.091189        0.468810
C        1.823234        0.049728        0.042411
H        2.504296       -0.717975        0.579034
H        2.243322       -0.232744       -0.965623
H        1.765294        1.197982        0.065182
N        0.457039       -0.408800       -0.066212
N       -0.431554        0.468604        0.054811
10
  Step 39: 39.0 fs
C       -1.813214       -0.089136       -0.005319
H       -2.632542        0.650026        0.517618
H       -2.238417       -0.133884       -0.994689
H       -2.106073       -1.117535        0.488528
C        1.817983        0.061856        0.040066
H        2.517725       -0.753938        0.586421
H        2.235939       -0.235019       -0.960452
H        1.786096        1.151619        0.068478
N        0.453683       -0.408433       -0.065512
N       -0.426232        0.463442        0.056848
10
  Step 40: 40.0 fs
C       -1.806757       -0.089880       -0.008895
H       -2.649103        0.688182        0.527552
H       -2.256805       -0.141954       -1.003860
H       -2.130022       -1.129338        0.501059
C        1.813959        0.072307        0.036152
H        2.514034       -0.765760        0.596077
H        2.225730       -0.231081       -0.955950
H        1.816301        1.107525        0.082443
N        0.448882       -0.408996       -0.064284
N       -0.420449        0.458113        0.059059
10
  Step 41: 41.0 fs
C       -1.803666       -0.090624       -0.010587
H       -2.639306        0.711033        0.527163
H       -2.268522       -0.149746       -1.018994
H       -2.137947       -1.122933        0.504903
C        1.811288        0.079035        0.030926
H        2.492069       -0.751335        0.605705
H        2.213759       -0.221506       -0.953699
H        1.854616        1.086073        0.108112
N        0.443143       -0.410678       -0.062598
N       -0.414674        0.452940        0.061441
10
  Step 42: 42.0 fs
C       -1.804222       -0.091222       -0.010710
H       -2.603230        0.716917        0.515716
H       -2.271003       -0.156643       -1.034889
H       -2.129630       -1.098504        0.500200
C        1.809829        0.080990        0.024629
H        2.453187       -0.712073        0.614386
H        2.201482       -0.207099       -0.955892
H        1.899867        1.098843        0.146054
N        0.436993       -0.413612       -0.060538
N       -0.409388        0.448246        0.063992
10
  Step 43: 43.0 fs
C       -1.808270       -0.091367       -0.009732
H       -2.543576        0.706330        0.493864
H       -2.262660       -0.162246       -1.047618
H       -2.106425       -1.060073        0.488846
C        1.809331        0.079213        0.017577
H        2.401525       -0.653407        0.622984
H        2.190512       -0.188688       -0.964705
H        1.949398        1.136289        0.194299
N        0.430915       -0.417871       -0.058191
N       -0.405033        0.444311        0.066700
10
  Step 44: 44.0 fs
C       -1.815079       -0.090614       -0.008336
H       -2.466767        0.683221        0.464406
H       -2.243252       -0.166418       -1.055109
H       -2.071560       -1.016533        0.475102
C        1.809438        0.076108        0.009995
H        2.345112       -0.585982        0.635666
H        2.182278       -0.166976       -0.981030
H        1.998265        1.177796        0.247564
N        0.425289       -0.423447       -0.055648
N       -0.401960        0.441331        0.069536
10
  Step 45: 45.0 fs
C       -1.823172       -0.088608       -0.007594
H       -2.385152        0.658080        0.434073
H       -2.213947       -0.169306       -1.057243
H       -2.030015       -0.982010        0.465953
C        1.809565        0.074127        0.001635
H        2.295779       -0.525225        0.661124
H        2.177722       -0.142607       -1.003284
H        2.040991        1.207141        0.299431
N        0.420366       -0.430221       -0.052993
N       -0.400379        0.439379        0.072443
10
  Step 46: 46.0 fs
C       -1.830446       -0.085718       -0.008932
H       -2.317729        0.650759        0.414989
H       -2.177133       -0.171262       -1.055640
H       -1.986881       -0.971350        0.469055
C        1.809196        0.074912       -0.008005
H        2.263974       -0.484702        0.708144
H        2.177277       -0.116426       -1.027506
H        2.073147        1.216447        0.344300
N        0.416261       -0.437964       -0.050315
N       -0.400323        0.438404        0.075339
10
  Step 47: 47.0 fs
C       -1.835142       -0.083202       -0.013222
H       -2.281428        0.681435        0.419213
H       -2.136128       -0.172742       -1.053532
H       -1.945006       -0.989320        0.487208
C        1.808500        0.078666       -0.018638
H        2.250775       -0.466299        0.774123
H        2.181058       -0.089618       -1.048939
H        2.091644        1.204015        0.377963
N        0.412964       -0.446341       -0.047698
N       -0.401635        0.438243        0.078121
10
  Step 48: 48.0 fs
C       -1.837102       -0.081597       -0.019426
H       -2.276095        0.746408        0.445035
H       -2.094681       -0.174271       -1.055363
H       -1.905288       -1.025688        0.515333
C        1.808178        0.084520       -0.028934
H        2.249419       -0.462268        0.843552
H        2.189019       -0.063592       -1.063762
H        2.094624        1.171999        0.397673
N        0.410378       -0.454960       -0.045216
N       -0.404006        0.438662        0.080680
10
  Step 49: 49.0 fs
C       -1.837164       -0.080161       -0.025233
H       -2.289563        0.820479        0.478507
H       -2.056199       -0.176309       -1.065130
H       -1.868808       -1.064284        0.544602
C        1.808774        0.091395       -0.037502
H        2.253175       -0.464840        0.899993
H        2.201013       -0.039792       -1.069869
H        2.081493        1.125608        0.402439
N        0.408362       -0.463409       -0.042917
N       -0.407061        0.439396        0.082922
10
  Step 50: 50.0 fs
C       -1.835997       -0.078160       -0.028858
H       -2.311322        0.881291        0.506947
H       -2.022963       -0.179012       -1.083600
H       -1.837325       -1.092266        0.567427
C        1.810406        0.098202       -0.043533
H        2.258259       -0.469615        0.932975
H        2.216850       -0.019556       -1.066933
H        2.053235        1.073884        0.393785
N        0.406768       -0.471306       -0.040828
N       -0.410427        0.440188        0.084787
10
  Step 51: 51.0 fs
C       -1.833953       -0.075293       -0.029634
H       -2.335266        0.916648        0.523145
H       -1.995988       -0.182108       -1.107058
H       -1.812697       -1.102443        0.579166
C        1.812805        0.103593       -0.046879
H        2.263132       -0.474484        0.937727
H        2.236359       -0.003985       -1.056190
H        2.012770        1.031495        0.376870
N        0.405463       -0.478318       -0.038967
N       -0.413761        0.440816        0.086239
10
  Step 52: 52.0 fs
C       -1.831236       -0.071499       -0.027715
H       -2.357987        0.921468        0.523884
H       -1.975478       -0.185018       -1.128954
H       -1.796448       -1.092351        0.577918
C        1.815502        0.105955       -0.047877
H        2.267480       -0.478284        0.913351
H        2.259385        0.006221       -1.040041
H        1.964149        1.017339        0.359987
N        0.404328       -0.484196       -0.037359
N       -0.416745        0.441113        0.087263
10
  Step 53: 53.0 fs
C       -1.827997       -0.066776       -0.023660
H       -2.377566        0.894967        0.508427
H       -1.961342       -0.187110       -1.142856
H       -1.789596       -1.063366        0.564184
C        1.818124        0.104284       -0.046887
H        2.271763       -0.480311        0.862097
H        2.285653        0.010928       -1.021488
H        1.909844        1.043581        0.349175
N        0.403262       -0.488785       -0.036041
N       -0.419092        0.440979        0.087857
10
  Step 54: 54.0 fs
C       -1.824349       -0.061078       -0.018240
H       -2.393343        0.839869        0.478034
H       -1.953362       -0.187922       -1.144428
H       -1.792522       -1.020855        0.540944
C        1.820475        0.099357       -0.043917
H        2.277538       -0.480958        0.790215
H        2.314439        0.010674       -1.003462
H        1.850010        1.102195        0.342248
N        0.402180       -0.492042       -0.035060
N       -0.420558        0.440388        0.088034
10
  Step 55: 55.0 fs
C       -1.820263       -0.054328       -0.012463
H       -2.406953        0.763825        0.436616
H       -1.951195       -0.187299       -1.132293
H       -1.804866       -0.975287        0.514153
C        1.822166        0.093341       -0.039186
H        2.288565       -0.483428        0.709860
H        2.344109        0.006701       -0.988129
H        1.786042        1.171092        0.332652
N        0.401033       -0.494015       -0.034461
N       -0.420973        0.439388        0.087837
10
  Step 56: 56.0 fs
C       -1.815349       -0.046645       -0.007624
H       -2.424666        0.681923        0.392010
H       -1.954315       -0.185518       -1.108397
H       -1.825534       -0.941822        0.492237
C        1.822439        0.088548       -0.033702
H        2.311547       -0.494880        0.638778
H        2.371916        0.000831       -0.976572
H        1.721890        1.229860        0.316155
N        0.399833       -0.494829       -0.034269
N       -0.420267        0.438100        0.087340
10
  Step 57: 57.0 fs
C       -1.808655       -0.038775       -0.004991
H       -2.459165        0.616198        0.355733
H       -1.962001       -0.183387       -1.078032
H       -1.853011       -0.934451        0.482608