10
  Step 0: 0.0 fs
C       -1.803708       -0.067738        0.000062
H       -2.311488        0.330646        0.889276
H       -2.311370        0.329975       -0.889461
H       -1.816429       -1.165813        0.000630
C        1.803678        0.067715        0.000025
H        2.310886       -0.329678        0.890045
H        2.312175       -0.330894       -0.888630
H        1.816233        1.165794       -0.000443
N        0.410954       -0.460075       -0.000156
N       -0.410930        0.460088       -0.000124
10
  Step 1: 1.0 fs
C       -1.790018       -0.072986        0.005445
H       -2.297196        0.359161        0.828407
H       -2.334509        0.345032       -0.911289
H       -1.779269       -1.164316       -0.050028
C        1.807907        0.071423       -0.003287
H        2.292143       -0.329330        0.853279
H        2.195594       -0.340372       -0.803348
H        1.818256        1.164811       -0.027610
N        0.398392       -0.457345       -0.000435
N       -0.406168        0.456161        0.006442
10
  Step 2: 2.0 fs
C       -1.776529       -0.077938        0.008823
H       -2.289265        0.389477        0.780667
H       -2.350379        0.355588       -0.925083
H       -1.743997       -1.164150       -0.097666
C        1.809571        0.076742       -0.004015
H        2.279287       -0.332072        0.827658
H        2.103810       -0.369714       -0.762686
H        1.820830        1.164660       -0.054326
N        0.386592       -0.455003       -0.000568
N       -0.401977        0.452872        0.013003
10
  Step 3: 3.0 fs
C       -1.763387       -0.082485        0.008960
H       -2.292212        0.422567        0.754663
H       -2.354497        0.359217       -0.927326
H       -1.712437       -1.165626       -0.139547
C        1.807301        0.085088       -0.000402
H        2.277057       -0.340385        0.821320
H        2.049455       -0.436830       -0.798246
H        1.824630        1.165973       -0.080677
N        0.376261       -0.453445       -0.000380
N       -0.398926        0.450855        0.019560
10
  Step 4: 4.0 fs
C       -1.751029       -0.086352        0.005695
H       -2.305041        0.455138        0.749913
H       -2.344903        0.355256       -0.917918
H       -1.686125       -1.168321       -0.173333
C        1.802164        0.094581        0.004703
H        2.286327       -0.353887        0.834388
H        2.020405       -0.523520       -0.878443
H        1.830105        1.169784       -0.106860
N        0.368015       -0.452989        0.000299
N       -0.397501        0.450650        0.026117
10
  Step 5: 5.0 fs
C       -1.740131       -0.089094       -0.000339
H       -2.322156        0.480248        0.759388
H       -2.321801        0.344506       -0.899234
H       -1.666120       -1.171542       -0.197207
C        1.795455        0.102378        0.008420
H        2.303425       -0.368557        0.858529
H        2.005528       -0.602799       -0.962007
H        1.837384        1.176580       -0.132913
N        0.362361       -0.453797        0.001574
N       -0.397992        0.452596        0.032672
10
  Step 6: 6.0 fs
C       -1.731266       -0.090393       -0.008168
H       -2.337295        0.491092        0.775075
H       -2.287744        0.329310       -0.876146
H       -1.652924       -1.174620       -0.209942
C        1.788015        0.106818        0.009901
H        2.322685       -0.378967        0.882566
H        2.000302       -0.660837       -1.028399
H        1.846299        1.185097       -0.158513
N        0.359596       -0.455794        0.003487
N       -0.400413        0.456750        0.039216
10
  Step 7: 7.0 fs
C       -1.724635       -0.090279       -0.016674
H       -2.346036        0.483469        0.790879
H       -2.248052        0.313815       -0.856626
H       -1.646519       -1.177039       -0.210972
C        1.780420        0.107295        0.009173
H        2.339234       -0.380910        0.897724
H        2.002749       -0.692774       -1.069758
H        1.856346        1.192389       -0.182933
N        0.359723       -0.458658        0.006050
N       -0.404493        0.462859        0.045742
10
  Step 8: 8.0 fs
C       -1.720069       -0.089120       -0.024641
H       -2.346241        0.456077        0.802817
H       -2.210301        0.303575       -0.851222
H       -1.646463       -1.178457       -0.200487
C        1.773100        0.103800        0.006363
H        2.349948       -0.372298        0.899034
H        2.011600       -0.697472       -1.083285
H        1.866694        1.194898       -0.205152
N        0.362448       -0.461866        0.009269
N       -0.409718        0.470417        0.052234
10
  Step 9: 9.0 fs
C       -1.717278       -0.087406       -0.031076
H       -2.337893        0.410180        0.808730
H       -2.181306        0.303236       -0.868818
H       -1.651980       -1.178732       -0.179530
C        1.766394        0.096624        0.001456
H        2.353606       -0.353150        0.885281
H        2.025771       -0.675314       -1.068169
H        1.876282        1.189724       -0.224134
N        0.367249       -0.464786        0.013149
N       -0.415428        0.478765        0.058674
10
  Step 10: 10.0 fs
C       -1.716193       -0.085446       -0.035795
H       -2.323058        0.349416        0.808421
H       -2.162960        0.313147       -0.909660
H       -1.661988       -1.177984       -0.150062
C        1.760544        0.086234       -0.005703
H        2.350859       -0.325325        0.858716
H        2.044272       -0.627926       -1.025130
H        1.883954        1.175584       -0.239072
N        0.373464       -0.466797        0.017689
N       -0.420916        0.487210        0.065045
10
  Step 11: 11.0 fs
C       -1.716946       -0.083314       -0.039607
H       -2.306062        0.279733        0.804326
H       -2.152021        0.328833       -0.963779
H       -1.675071       -1.176625       -0.114948
C        1.755649        0.073300       -0.015302
H        2.344466       -0.292335        0.825281
H        2.066399       -0.559165       -0.957670
H        1.888562        1.153385       -0.249524
N        0.380390       -0.467392        0.022868
N       -0.425535        0.495124        0.071324
10
  Step 12: 12.0 fs
C       -1.719531       -0.081071       -0.043787
H       -2.293264        0.208728        0.801710
H       -2.143995        0.344250       -1.017420
H       -1.689479       -1.175317       -0.077821
C        1.751522        0.058877       -0.027155
H        2.339118       -0.258702        0.794246
H        2.092981       -0.478047       -0.876314
H        1.889060        1.126412       -0.255416
N        0.387351       -0.466246        0.028624
N       -0.428771        0.502004        0.077488
10
  Step 13: 13.0 fs
C       -1.723695       -0.078866       -0.049435
H       -2.291266        0.143939        0.806862
H       -2.135968        0.354636       -1.059299
H       -1.703218       -1.174828       -0.042751
C        1.747427        0.044711       -0.039825
H        2.339901       -0.228577        0.775908
H        2.130344       -0.403389       -0.806528
H        1.884554        1.099978       -0.256970
N        0.393780       -0.463246        0.034835
N       -0.430277        0.507496        0.083502
10
  Step 14: 14.0 fs
C       -1.729195       -0.076843       -0.056956
H       -2.303481        0.090649        0.822354
H       -2.126865        0.357234       -1.082478
H       -1.714317       -1.175713       -0.013721
C        1.742028        0.032909       -0.050347
H        2.349014       -0.203993        0.776522
H        2.193669       -0.360519       -0.786795
H        1.874311        1.080257       -0.254624
N        0.399273       -0.458499        0.041309
N       -0.429885        0.511406        0.089322
10
  Step 15: 15.0 fs
C       -1.736000       -0.075120       -0.065888
H       -2.328107        0.051425        0.844136
H       -2.117009        0.351149       -1.084364
H       -1.721167       -1.177922        0.005949
C        1.735180        0.023936       -0.057495
H        2.363762       -0.184703        0.794769
H        2.288429       -0.355792       -0.826795
H        1.857821        1.072219       -0.249004
N        0.403554       -0.452311        0.047827
N       -0.427605        0.513700        0.094898
10
  Step 16: 16.0 fs
C       -1.744165       -0.073882       -0.075155
H       -2.359923        0.027155        0.863961
H       -2.107855        0.337263       -1.066598
H       -1.722800       -1.180655        0.014020
C        1.729310        0.016566       -0.063140
H        2.378194       -0.169566        0.823221
H        2.393054       -0.372439       -0.893433
H        1.835086        1.077143       -0.240947
N        0.406414       -0.445136        0.054207
N       -0.423624        0.514477        0.100178
10
  Step 17: 17.0 fs
C       -1.753574       -0.073450       -0.083409
H       -2.393341        0.017801        0.874012
H       -2.102111        0.318536       -1.035709
H       -1.718984       -1.182670        0.009478
C        1.726922        0.010132       -0.068757
H        2.386290       -0.157715        0.852566
H        2.484621       -0.395877       -0.956970
H        1.806929        1.091624       -0.231452
N        0.407748       -0.437513        0.060314
N       -0.418277        0.513954        0.105117
10
  Step 18: 18.0 fs
C       -1.763839       -0.074252       -0.089188
H       -2.423957        0.022530        0.869180
H       -2.103804        0.300140       -1.003444
H       -1.710155       -1.182878       -0.007480
C        1.729311        0.004791       -0.074698
H        2.384151       -0.148819        0.875199
H        2.550932       -0.418750       -1.003193
H        1.775039        1.109463       -0.221533
N        0.407599       -0.430016        0.066033
N       -0.412014        0.512442        0.109672
10
  Step 19: 19.0 fs
C       -1.774370       -0.076697       -0.091153
H       -2.448970        0.039742        0.847577
H       -2.117342        0.288411       -0.984258
H       -1.697263       -1.180904       -0.035576
C        1.736798        0.000959       -0.080864
H        2.370474       -0.142873        0.886532
H        2.586877       -0.437463       -1.026491
H        1.741795        1.124489       -0.212199
N        0.406182       -0.423221        0.071258
N       -0.405352        0.510327        0.113800
10
  Step 20: 20.0 fs
C       -1.784654       -0.080874       -0.088773
H       -2.467312        0.067203        0.810634
H       -2.144491        0.287395       -0.987036
H       -1.681595       -1.177357       -0.072670
C        1.749077       -0.001030       -0.087126
H        2.346345       -0.139985        0.885163
H        2.590655       -0.449988       -1.024878
H        1.709980        1.132308       -0.204438
N        0.403860       -0.417676        0.075875
N       -0.398840        0.508038        0.117464
10
  Step 21: 21.0 fs
C       -1.794476       -0.086340       -0.082947
H       -2.480071        0.102399        0.763306
H       -2.181601        0.295793       -1.007903
H       -1.664661       -1.173580       -0.116024
C        1.765407       -0.001034       -0.093482
H        2.315017       -0.140314        0.873022
H        2.562321       -0.455111       -0.998244
H        1.682462        1.130906       -0.199184
N        0.401085       -0.413872        0.079767
N       -0.392998        0.506005        0.120633
10
  Step 22: 22.0 fs
C       -1.803761       -0.092365       -0.075583
H       -2.490831        0.143026        0.713816
H       -2.221224        0.308628       -1.034707
H       -1.648176       -1.170886       -0.162553
C        1.784662        0.000914       -0.100055
H        2.281696       -0.144119        0.855650
H        2.504163       -0.452598       -0.948748
H        1.661859        1.120732       -0.197257
N        0.398329       -0.412195        0.082820
N       -0.388280        0.504605        0.123292
10
  Step 23: 23.0 fs
C       -1.812305       -0.098337       -0.068683
H       -2.504932        0.187427        0.671843
H       -2.256000        0.320949       -1.056052
H       -1.634071       -1.169753       -0.209003
C        1.805262        0.004761       -0.106821
H        2.252684       -0.151742        0.841539
H        2.423133       -0.444784       -0.883674
H        1.650258        1.104449       -0.199338
N        0.395997       -0.412865        0.084940
N       -0.385024        0.504090        0.125439
10
  Step 24: 24.0 fs
C       -1.819873       -0.103871       -0.063654
H       -2.526336        0.234030        0.644409
H       -2.280709        0.329573       -1.065242
H       -1.624349       -1.169675       -0.252084
C        1.824986        0.010794       -0.112816
H        2.233540       -0.163406        0.839128
H        2.335587       -0.440764       -0.821904
H        1.648995        1.086504       -0.206014
N        0.394369       -0.415878        0.086073
N       -0.383423        0.504537        0.127078
10
  Step 25: 25.0 fs
C       -1.826504       -0.108630       -0.061029
H       -2.554156        0.279820        0.632508
H       -2.292462        0.333104       -1.059961
H       -1.620769       -1.169750       -0.288726
C        1.841091        0.020042       -0.115346
H        2.226968       -0.178668        0.851606
H        2.268355       -0.461248       -0.798358
H        1.658530        1.072555       -0.217858
N        0.393558       -0.420978        0.086222
N       -0.383518        0.505822        0.128223
10
  Step 26: 26.0 fs
C       -1.832527       -0.112202       -0.060634
H       -2.582881        0.319866        0.632175
H       -2.290372        0.331579       -1.041125
H       -1.624545       -1.169331       -0.316358
C        1.852284        0.032966       -0.112214
H        2.232591       -0.196046        0.874872
H        2.235878       -0.522572       -0.835627
H        1.678437        1.068757       -0.235437
N        0.393513       -0.427667        0.085468
N       -0.385214        0.507632        0.128885
10
  Step 27: 27.0 fs
C       -1.838289       -0.114201       -0.061920
H       -2.605937        0.348935        0.638173
H       -2.275427        0.326385       -1.012416
H       -1.636199       -1.168383       -0.333098
C        1.860019        0.047136       -0.105050
H        2.248267       -0.213257        0.900679
H        2.222859       -0.606826       -0.907445
H        1.707712        1.079996       -0.259036
N        0.394060       -0.435280        0.083954
N       -0.388329        0.509522        0.129078
10
  Step 28: 28.0 fs
C       -1.843896       -0.114436       -0.064120
H       -2.618455        0.363171        0.646452
H       -2.250647        0.320498       -0.980653
H       -1.655583       -1.167499       -0.337832
C        1.865796        0.059678       -0.096290
H        2.271240       -0.227751        0.920563
H        2.213607       -0.686234       -0.978476
H        1.745459        1.106136       -0.288122
N        0.395008       -0.443085        0.081833
N       -0.392615        0.510992        0.128811
10
  Step 29: 29.0 fs
C       -1.849163       -0.112995       -0.066291
H       -2.618037        0.360790        0.654616
H       -2.220925        0.318496       -0.955720
H       -1.682021       -1.167639       -0.330252
C        1.870201        0.069338       -0.087259
H        2.298912       -0.237363        0.928383
H        2.202405       -0.745099       -1.030151
H        1.790992        1.140382       -0.320734
N        0.396193       -0.450367        0.079244
N       -0.397792        0.511550        0.128098
10
  Step 30: 30.0 fs
C       -1.853706       -0.110202       -0.067493
H       -2.604734        0.342204        0.661795
H       -2.191796        0.325424       -0.948306
H       -1.714466       -1.169711       -0.310893
C        1.873409        0.076052       -0.078673
H        2.329212       -0.240764        0.921177
H        2.188335       -0.777120       -1.055341
H        1.843174        1.172426       -0.353725
N        0.397481       -0.456500        0.076314
N       -0.403578        0.510767        0.126964
10
  Step 31: 31.0 fs
C       -1.857171       -0.106399       -0.067313
H       -2.580975        0.310057        0.668683
H       -2.166787        0.343646       -0.963692
H       -1.751618       -1.174120       -0.281129
C        1.875519        0.080173       -0.071133
H        2.360779       -0.237675        0.899237
H        2.171986       -0.780414       -1.051987
H        1.899890        1.193024       -0.383647
N        0.398751       -0.460977        0.073172
N       -0.409702        0.508305        0.125451
10
  Step 32: 32.0 fs
C       -1.859337       -0.101767       -0.066282
H       -2.551537        0.269210        0.677818
H       -2.146109        0.370351       -0.997034
H       -1.791935       -1.180438       -0.243140
C        1.876636        0.082097       -0.065263
H        2.393125       -0.228902        0.865895
H        2.154394       -0.755225       -1.020404
H        1.958218        1.196219       -0.407576
N        0.399901       -0.463439        0.069947
N       -0.415918        0.503947        0.123619
10
  Step 33: 33.0 fs
C       -1.860012       -0.096417       -0.065606
H       -2.522973        0.226191        0.693468
H       -2.128414        0.399150       -1.036499
H       -1.833586       -1.187393       -0.199819
C        1.876833        0.082186       -0.061652
H        2.426702       -0.216208        0.827082
H        2.136898       -0.703733       -0.963085
H        2.014866        1.180049       -0.423585
N        0.400853       -0.463689        0.066771
N       -0.422028        0.497604        0.121538
10
  Step 34: 34.0 fs
C       -1.859041       -0.090530       -0.066426
H       -2.501312        0.187533        0.719734
H       -2.112929        0.423695       -1.070098
H       -1.874437       -1.193234       -0.154585
C        1.876104        0.080876       -0.060561
H        2.462613       -0.201885        0.790177
H        2.121572       -0.631902       -0.886723
H        2.066590        1.146558       -0.430951
N        0.401563       -0.461689        0.063766
N       -0.427884        0.489327        0.119274
10
  Step 35: 35.0 fs
C       -1.856540       -0.084313       -0.069209
H       -2.488641        0.157773        0.756753
H       -2.099942        0.439653       -1.089448
H       -1.912231       -1.196242       -0.111084
C        1.874272        0.079005       -0.061238
H        2.501436       -0.187920        0.761730
H        2.112647       -0.554300       -0.807605
H        2.110683        1.101937       -0.430312
N        0.402051       -0.457569        0.061026
N       -0.433399        0.479314        0.116884
10
  Step 36: 36.0 fs
C       -1.852986       -0.077959       -0.073581
H       -2.482153        0.138999        0.799087
H       -2.090425        0.445023       -1.090473
H       -1.944879       -1.195098       -0.072771
C        1.870841        0.078239       -0.061124
H        2.541668       -0.175365        0.744934
H        2.118945       -0.499742       -0.758180
H        2.145485        1.056396       -0.423751
N        0.402428       -0.451620        0.058597
N       -0.438537        0.467906        0.114411
10
  Step 37: 37.0 fs
C       -1.848999       -0.071704       -0.078603
H       -2.476773        0.131869        0.838316
H       -2.085732        0.439987       -1.073179
H       -1.970737       -1.189116       -0.042533
C        1.865241        0.080031       -0.057149
H        2.579353       -0.164474        0.739180
H        2.150647       -0.497277       -0.771310
H        2.170751        1.022637       -0.414550
N        0.402913       -0.444289        0.056469
N       -0.443317        0.455593        0.111888
10
  Step 38: 38.0 fs
C       -1.845068       -0.065882       -0.083117
H       -2.468134        0.136468        0.866957
H       -2.087587        0.426967       -1.041751
H       -1.988760       -1.178419       -0.022417
C        1.858192        0.082807       -0.049835
H        2.609439       -0.155382        0.741720
H        2.202697       -0.537743       -0.834442
H        2.187108        1.011535       -0.406099
N        0.403802       -0.436156        0.054609
N       -0.447815        0.442985        0.109332
10
  Step 39: 39.0 fs
C       -1.841429       -0.060928       -0.085891
H       -2.453680        0.152461        0.880260
H       -2.098220        0.410756       -1.004788
H       -1.998577       -1.164146       -0.013495
C        1.851408        0.083975       -0.041914
H        2.627281       -0.148407        0.749243
H        2.258873       -0.591230       -0.909797
H        2.194366        1.025996       -0.400032
N        0.405412       -0.427887        0.052972
N       -0.452148        0.430764        0.106743
10
  Step 40: 40.0 fs
C       -1.838063       -0.057306       -0.085744
H       -2.432716        0.179041        0.876627
H       -2.120283        0.397885       -0.974139
H       -2.000499       -1.148570       -0.015813
C        1.846261        0.082686       -0.035224
H        2.629660       -0.143965        0.758823
H        2.307595       -0.638390       -0.973191
H        2.190597        1.059322       -0.395263
N        0.408038       -0.420173        0.051509
N       -0.456438        0.419620        0.104101
10
  Step 41: 41.0 fs
C       -1.834817       -0.055279       -0.081999
H       -2.406289        0.214956        0.857603
H       -2.155470        0.393795       -0.959474
H       -1.995469       -1.134943       -0.028411
C        1.843502        0.079396       -0.030671
H        2.615403       -0.142432        0.768670
H        2.343298       -0.670490       -1.014186
H        2.173462        1.100045       -0.389166
N        0.411908       -0.413652        0.050159
N       -0.460769        0.410177        0.101363
10
  Step 42: 42.0 fs
C       -1.831618       -0.054669       -0.075061
H       -2.377200        0.258764        0.828058
H       -2.202148        0.399142       -0.961474
H       -1.984923       -1.126825       -0.049456
C        1.843331        0.074910       -0.028725
H        2.585588       -0.144096        0.778532
H        2.363581       -0.683809       -1.028821
H        2.141995        1.137524       -0.379337
N        0.417113       -0.408815        0.048869
N       -0.465112        0.402922        0.098461
10
  Step 43: 43.0 fs
C       -1.828576       -0.054998       -0.066372
H       -2.349877        0.309223        0.795852
H       -2.254516        0.409752       -0.971936
H       -1.970571       -1.126691       -0.076473
C        1.845507        0.069943       -0.029690
H        2.543461       -0.149179        0.789901
H        2.367542       -0.676804       -1.015927
H        2.097078        1.164149       -0.364274
N        0.423560       -0.405968        0.047584
N       -0.469282        0.398152        0.095312
10
  Step 44: 44.0 fs
C       -1.825891       -0.055894       -0.057664
H       -2.329369        0.365373        0.769924
H       -2.304987        0.420140       -0.980716
H       -1.954143       -1.134424       -0.106539
C        1.849474        0.065006       -0.033759
H        2.493784       -0.157797        0.805749
H        2.355278       -0.649237       -0.976034
H        2.041204        1.175845       -0.343486
N        0.430962       -0.405216        0.046254
N       -0.472931        0.395961        0.091823
10
  Step 45: 45.0 fs
C       -1.823808       -0.057240       -0.050165
H       -2.318941        0.425408        0.756131
H       -2.347004        0.426263       -0.980938
H       -1.937211       -1.147114       -0.136423
C        1.854500        0.060442       -0.040860
H        2.441413       -0.169716        0.829290
H        2.328313       -0.602660       -0.912100
H        1.977984        1.171919       -0.317367
N        0.438845       -0.406500        0.044825
N       -0.475592        0.396250        0.087894
10
  Step 46: 46.0 fs
C       -1.822677       -0.058933       -0.044295
H       -2.318203        0.484988        0.754390
H       -2.376098        0.425996       -0.969656
H       -1.921109       -1.160415       -0.162832
C        1.859723        0.056594       -0.050180
H        2.389470       -0.183877        0.861603
H        2.291491       -0.542889       -0.832784
H        1.911635        1.155090       -0.287101
N        0.446603       -0.409648        0.043240
N       -0.476751        0.398763        0.083437
10
  Step 47: 47.0 fs
C       -1.822858       -0.060739       -0.039834
H       -2.323786        0.537453        0.760206
H       -2.390017        0.418880       -0.947122
H       -1.906903       -1.170339       -0.182792
C        1.863867        0.054284       -0.059409
H        2.338796       -0.198284        0.899875
H        2.257260       -0.485716       -0.759782
H        1.846422        1.131504       -0.254575
N        0.453584       -0.414430        0.041431
N       -0.475943        0.403141        0.078380
10
  Step 48: 48.0 fs
C       -1.824528       -0.062360       -0.036277
H       -2.331690        0.576097        0.768499
H       -2.388648        0.405879       -0.916132
H       -1.895377       -1.174357       -0.193953
C        1.864924        0.055233       -0.064478
H        2.289231       -0.210599        0.938086
H        2.248543       -0.460418       -0.732027
H        1.785954        1.109702       -0.222059
N        0.459174       -0.420607        0.039317
N       -0.472821        0.408973        0.072677
10
  Step 49: 49.0 fs
C       -1.827542       -0.063576       -0.032997
H       -2.338792        0.596015        0.775805
H       -2.374233        0.389471       -0.882135
H       -1.887055       -1.171786       -0.194722
C        1.861639        0.060055       -0.062746
H        2.241239       -0.218990        0.969962
H        2.279723       -0.483299       -0.771255
H        1.732779        1.098736       -0.191765
N        0.462861       -0.427951        0.036824
N       -0.467200        0.415828        0.066307
10
  Step 50: 50.0 fs
C       -1.831407       -0.064307       -0.029262
H       -2.343272        0.594757        0.780638
H       -2.351523        0.373716       -0.853361
H       -1.882235       -1.163753       -0.184327
C        1.855350        0.066196       -0.056289
H        2.196390       -0.222520        0.991288
H        2.334295       -0.529665       -0.845906
H        1.688482        1.104759       -0.165312
N        0.464267       -0.436239        0.033896
N       -0.459076        0.423284        0.059268
10
  Step 51: 51.0 fs
C       -1.835389       -0.064596       -0.024293
H       -2.344577        0.572333        0.783158
H       -2.326971        0.363625       -0.839734
H       -1.880991       -1.152897       -0.162869
C        1.847719        0.071365       -0.047953
H        2.157033       -0.221175        1.000493
H        2.390794       -0.571263       -0.918834
H        1.654484        1.127205       -0.143464
N        0.463197       -0.445226        0.030479
N       -0.448605        0.430929        0.051591
10
  Step 52: 52.0 fs
C       -1.838776       -0.064466       -0.017626
H       -2.343439        0.531243        0.785021
H       -2.305830        0.362758       -0.848437
H       -1.883159       -1.142796       -0.131309
C        1.839487        0.075036       -0.039350
H        2.125895       -0.215770        0.998747
H        2.437506       -0.594577       -0.971149
H        1.632413        1.158952       -0.126224
N        0.459649       -0.454640        0.026521
N       -0.436080        0.438383        0.043336
10
  Step 53: 53.0 fs
C       -1.841145       -0.063794       -0.009598
H       -2.342010        0.476632        0.789547
H       -2.289094        0.370381       -0.878416
H       -1.888255       -1.136996       -0.091428
C        1.830852        0.077595       -0.031407
H        2.105645       -0.207773        0.989784
H        2.469219       -0.595081       -0.995397
H        1.623516        1.190559       -0.113218
N        0.453791       -0.464189        0.021984
N       -0.421919        0.445313        0.034602
10
  Step 54: 54.0 fs
C       -1.842322       -0.062416       -0.001357
H       -2.343732        0.415895        0.801578
H       -2.274115        0.381679       -0.920120
H       -1.895389       -1.137647       -0.045716
C        1.821876        0.079589       -0.024827
H        2.098466       -0.199035        0.979099
H        2.483613       -0.572038       -0.989123
H        1.627990        1.213987       -0.103989
N        0.445929       -0.473591        0.016860
N       -0.406639        0.451456        0.025524
10
  Step 55: 55.0 fs
C       -1.842211       -0.060339        0.005740
H       -2.352136        0.356858        0.825780
H       -2.257887        0.390857       -0.961081
H       -1.903206       -1.144461        0.002772
C        1.812680        0.081416       -0.020156
H        2.105504       -0.191286        0.972187
H        2.479759       -0.526448       -0.952348
H        1.644824        1.224135       -0.098080
N        0.436474       -0.482608        0.011181
N       -0.390841        0.456637        0.016261
10
  Step 56: 56.0 fs
C       -1.840845       -0.057707        0.010884
H       -2.368190        0.304928        0.862755
H       -2.239102        0.393595       -0.991038
H       -1.909989       -1.154799        0.050611
C        1.803498        0.083242       -0.017556
H        2.126148       -0.185392        0.971926
H        2.458106       -0.460941       -0.887555
H        1.671879        1.219217       -0.095056
N        0.425921       -0.491071        0.005011
N       -0.375173        0.460779        0.006985
10
  Step 57: 57.0 fs
C       -1.838495       -0.054680        0.014129
H       -2.388920        0.262180        0.906886
H       -2.218193        0.387646       -1.003696
H       -1.913914       -1.164842        0.094329