10
  Step 0: 0.0 fs
C       -1.803703       -0.067741        0.000064
H       -2.311503        0.330661        0.889264
H       -2.311361        0.329971       -0.889466
H       -1.816433       -1.165809        0.000662
C        1.803673        0.067714        0.000028
H        2.310883       -0.329661        0.890044
H        2.312184       -0.330897       -0.888625
H        1.816222        1.165793       -0.000439
N        0.410952       -0.460077       -0.000165
N       -0.410927        0.460091       -0.000121
10
  Step 1: 1.0 fs
C       -1.802347       -0.064428       -0.007816
H       -2.355185        0.335332        0.971086
H       -2.285564        0.346892       -0.921156
H       -1.746170       -1.201767        0.031715
C        1.805779        0.076447       -0.000806
H        2.293279       -0.347897        0.879170
H        2.386649       -0.379055       -0.910368
H        1.800749        1.117115       -0.011063
N        0.411053       -0.467361       -0.000237
N       -0.420744        0.466368        0.004688
10
  Step 2: 2.0 fs
C       -1.801604       -0.061442       -0.014279
H       -2.389293        0.333452        1.033082
H       -2.260208        0.360488       -0.947894
H       -1.679846       -1.226316        0.060324
C        1.808347        0.082631       -0.002762
H        2.277107       -0.365111        0.871102
H        2.450442       -0.419056       -0.919350
H        1.786600        1.089353       -0.022092
N        0.410760       -0.474018       -0.000413
N       -0.429841        0.472205        0.009503
10
  Step 3: 3.0 fs
C       -1.801569       -0.059176       -0.018676
H       -2.409801        0.323157        1.066036
H       -2.236131        0.368297       -0.966241
H       -1.621644       -1.232675        0.084149
C        1.811583        0.084374       -0.006250
H        2.263378       -0.379996        0.867701
H        2.497187       -0.446015       -0.910486
H        1.774580        1.098521       -0.034038
N        0.409778       -0.479520       -0.000776
N       -0.437618        0.477259        0.014322
10
  Step 4: 4.0 fs
C       -1.802117       -0.057886       -0.020686
H       -2.415435        0.304617        1.066327
H       -2.214564        0.368914       -0.974718
H       -1.575245       -1.218764        0.101262
C        1.815511        0.081704       -0.011288
H        2.252508       -0.390951        0.869900
H        2.523610       -0.457617       -0.883220
H        1.765501        1.140039       -0.046831
N        0.407905       -0.483449       -0.001394
N       -0.443595        0.481294        0.019137
10
  Step 5: 5.0 fs
C       -1.803054       -0.057665       -0.020131
H       -2.406444        0.278986        1.033579
H       -2.197024        0.361982       -0.973851
H       -1.543403       -1.186477        0.110293
C        1.820010        0.076155       -0.017673
H        2.244256       -0.396222        0.877800
H        2.528740       -0.453568       -0.839847
H        1.760562        1.193291       -0.059596
N        0.405032       -0.485503       -0.002322
N       -0.447395        0.484188        0.023935
10
  Step 6: 6.0 fs
C       -1.804151       -0.058427       -0.017004
H       -2.384693        0.248391        0.970724
H       -2.185103        0.348065       -0.965974
H       -1.527556       -1.141650        0.110552
C        1.824806        0.069398       -0.024921
H        2.237777       -0.394074        0.890698
H        2.514316       -0.435798       -0.785651
H        1.760754        1.238275       -0.071295
N        0.401150       -0.485498       -0.003606
N       -0.448757        0.485932        0.028701
10
  Step 7: 7.0 fs
C       -1.805060       -0.059884       -0.011743
H       -2.355211        0.216687        0.886579
H       -2.180192        0.328461       -0.954797
H       -1.527174       -1.094688        0.102180
C        1.829336        0.062784       -0.032106
H        2.231877       -0.383077        0.907224
H        2.486521       -0.409618       -0.730347
H        1.766445        1.262584       -0.081217
N        0.396353       -0.483382       -0.005285
N       -0.447550        0.486620        0.033427
10
  Step 8: 8.0 fs
C       -1.805033       -0.061642       -0.005773
H       -2.329782        0.191106        0.801476
H       -2.183140        0.304915       -0.944609
H       -1.539333       -1.060380        0.086193
C        1.832525        0.057566       -0.037730
H        2.225400       -0.362468        0.925527
H        2.458305       -0.385292       -0.689821
H        1.777402        1.260737       -0.089082
N        0.390830       -0.479252       -0.007391
N       -0.443819        0.486431        0.038111
10
  Step 9: 9.0 fs
C       -1.802618       -0.063523       -0.001786
H       -2.329413        0.182879        0.749526
H       -2.193900        0.279269       -0.939071
H       -1.559707       -1.053861        0.064172
C        1.832988        0.054902       -0.040041
H        2.217595       -0.332455        0.943457
H        2.446719       -0.375959       -0.682530
H        1.792891        1.232459       -0.094989
N        0.384868       -0.473358       -0.009946
N       -0.437827        0.485603        0.042765
10
  Step 10: 10.0 fs
C       -1.796662       -0.065683       -0.001734
H       -2.369930        0.199666        0.754429
H       -2.211402        0.253272       -0.940273
H       -1.585478       -1.081308        0.037780
C        1.830251        0.055005       -0.038343
H        2.208373       -0.294410        0.958983
H        2.458472       -0.387384       -0.714440
H        1.811691        1.182654       -0.099409
N        0.378843       -0.466103       -0.012953
N       -0.430066        0.484417        0.047403
10
  Step 11: 11.0 fs
C       -1.788295       -0.068179       -0.004224
H       -2.437801        0.234451        0.797854
H       -2.233627        0.228480       -0.948122
H       -1.616663       -1.134091        0.008852
C        1.825412        0.056518       -0.033723
H        2.198417       -0.250938        0.970849
H        2.481911       -0.412255       -0.770702
H        1.832202        1.123033       -0.103417
N        0.373233       -0.458020       -0.016405
N       -0.421197        0.483208        0.052034
10
  Step 12: 12.0 fs
C       -1.779722       -0.071199       -0.006970
H       -2.507179        0.274143        0.847869
H       -2.257634        0.205991       -0.959875
H       -1.653797       -1.194831       -0.020233
C        1.819913        0.057181       -0.027828
H        2.189003       -0.205589        0.979066
H        2.501015       -0.439613       -0.830221
H        1.852922        1.073205       -0.109162
N        0.368608       -0.449738       -0.020289
N       -0.412002        0.482369        0.056665
10
  Step 13: 13.0 fs
C       -1.772604       -0.075113       -0.008915
H       -2.560998        0.309616        0.885230
H       -2.279907        0.186544       -0.971137
H       -1.695843       -1.247373       -0.046782
C        1.814599        0.054888       -0.021869
H        2.181712       -0.162289        0.985080
H        2.505909       -0.462234       -0.877769
H        1.873154        1.054905       -0.119717
N        0.365571       -0.441914       -0.024596
N       -0.403292        0.482320        0.061313
10
  Step 14: 14.0 fs
C       -1.767960       -0.080192       -0.009895
H       -2.591321        0.336093        0.901884
H       -2.297145        0.170770       -0.977815
H       -1.740335       -1.281171       -0.068340
C        1.809812        0.049034       -0.016636
H        2.177989       -0.124511        0.991119
H        2.492704       -0.476823       -0.904857
H        1.892536        1.075434       -0.137287
N        0.364667       -0.435154       -0.029320
N       -0.395818        0.483444        0.066005
10
  Step 15: 15.0 fs
C       -1.766376       -0.086476       -0.010024
H       -2.595109        0.351170        0.895263
H       -2.306916        0.159399       -0.977466
H       -1.784263       -1.291227       -0.082961
C        1.805756        0.040968       -0.012741
H        2.178673       -0.094557        0.998875
H        2.461161       -0.482614       -0.907634
H        1.909691        1.120279       -0.161142
N        0.366256       -0.429901       -0.034444
N       -0.390164        0.485978        0.070765
10
  Step 16: 16.0 fs
C       -1.768103       -0.093778       -0.009422
H       -2.572035        0.353764        0.865642
H       -2.308088        0.153287       -0.969868
H       -1.824668       -1.276986       -0.089289
C        1.802595        0.032645       -0.010541
H        2.183670       -0.073345        1.008243
H        2.413580       -0.480535       -0.885790
H        1.922497        1.168031       -0.188343
N        0.370439       -0.426344       -0.039930
N       -0.386684        0.489924        0.075600
10
  Step 17: 17.0 fs
C       -1.773023       -0.101683       -0.008171
H       -2.524217        0.344066        0.815813
H       -2.300925        0.153383       -0.957111
H       -1.859006       -1.242153       -0.086624
C        1.800314        0.025616       -0.009909
H        2.191954       -0.060738        1.017188
H        2.355151       -0.473509       -0.843242
H        1.929358        1.203068       -0.215675
N        0.377025       -0.424382       -0.045698
N       -0.385470        0.495009        0.080491
10
  Step 18: 18.0 fs
C       -1.780521       -0.109551       -0.006470
H       -2.457766        0.324614        0.752780
H       -2.286943        0.160592       -0.943253
H       -1.885465       -1.195545       -0.075130
C        1.798548        0.021054       -0.010051
H        2.201973       -0.056063        1.022805
H        2.295236       -0.467866       -0.790403
H        1.929635        1.217132       -0.240615
N        0.385553       -0.423655       -0.051625
N       -0.386374        0.500705        0.085381
10
  Step 19: 19.0 fs
C       -1.789186       -0.116642       -0.005067
H       -2.386471        0.303134        0.691984
H       -2.268458        0.175488       -0.933351
H       -1.903395       -1.152154       -0.055967
C        1.796515        0.020103       -0.009483
H        2.212180       -0.058444        1.022693
H        2.247847       -0.474759       -0.745708
H        1.923499        1.207062       -0.261488
N        0.395346       -0.423636       -0.057539
N       -0.389051        0.506321        0.090184
10
  Step 20: 20.0 fs
C       -1.796675       -0.122539       -0.005739
H       -2.334261        0.295581        0.660848
H       -2.247832        0.197837       -0.931610
H       -1.913543       -1.130818       -0.030994
C        1.793450        0.023682       -0.006760
H        2.221455       -0.066938        1.016060
H        2.226183       -0.506287       -0.727898
H        1.911786        1.173505       -0.277476
N        0.405608       -0.423758       -0.063240
N       -0.393046        0.511123        0.094791
10
  Step 21: 21.0 fs
C       -1.801015       -0.127258       -0.010272
H       -2.321345        0.317637        0.683758
H       -2.226818        0.226132       -0.939438
H       -1.917244       -1.144064       -0.001824
C        1.789527        0.031399       -0.002044
H        2.229351       -0.080541        1.004219
H        2.231343       -0.562811       -0.737552
H        1.895971        1.121274       -0.288786
N        0.415530       -0.423528       -0.068523
N       -0.397866        0.514458        0.099093
10
  Step 22: 22.0 fs
C       -1.802788       -0.130393       -0.017789
H       -2.339744        0.363226        0.749676
H       -2.206476        0.257590       -0.955004
H       -1.915041       -1.187033        0.030328
C        1.785734        0.041154        0.003055
H        2.236086       -0.098180        0.990140
H        2.252902       -0.630175       -0.757530
H        1.878320        1.061377       -0.297373
N        0.424385       -0.422588       -0.073205
N       -0.403015        0.515821        0.102979
10
  Step 23: 23.0 fs
C       -1.803803       -0.131526       -0.025827
H       -2.368151        0.412737        0.826887
H       -2.187372        0.288603       -0.974113
H       -1.906788       -1.241310        0.063513
C        1.782911        0.050062        0.007228
H        2.242242       -0.118661        0.977232
H        2.279932       -0.692463       -0.771555
H        1.862003        1.012565       -0.307921
N        0.431596       -0.420751       -0.077148
N       -0.408075        0.514901        0.106362
10
  Step 24: 24.0 fs
C       -1.805175       -0.130800       -0.032660
H       -2.392864        0.452292        0.892476
H       -2.169925        0.315484       -0.991891
H       -1.892770       -1.288016        0.094866
C        1.781462        0.055469        0.010065
H        2.248268       -0.140490        0.968116
H        2.305447       -0.739116       -0.771266
H        1.850408        0.996005       -0.326804
N        0.436757       -0.417979       -0.080257
N       -0.412741        0.511573        0.109191
10
  Step 25: 25.0 fs
C       -1.807270       -0.128558       -0.037464
H       -2.408005        0.475584        0.935141
H       -2.154647        0.335192       -1.004355
H       -1.874026       -1.314676        0.121475
C        1.781617        0.056304        0.011439
H        2.254096       -0.161760        0.964093
H        2.325600       -0.764672       -0.754114
H        1.845516        1.018569       -0.356353
N        0.439620       -0.414361       -0.082483
N       -0.416818        0.505886        0.111450
10
  Step 26: 26.0 fs
C       -1.810079       -0.125070       -0.039861
H       -2.411528        0.480450        0.950094
H       -2.142220        0.345782       -1.009265
H       -1.852101       -1.315421        0.141016
C        1.783599        0.053550        0.010936
H        2.259022       -0.180236        0.965253
H        2.338424       -0.767125       -0.720838
H        1.847342        1.065409       -0.390836
N        0.440090       -0.410072       -0.083830
N       -0.420207        0.498044        0.113156
10
  Step 27: 27.0 fs
C       -1.813442       -0.120497       -0.039645
H       -2.403143        0.466790        0.935893
H       -2.133485        0.346533       -1.006359
H       -1.828743       -1.289483        0.151954
C        1.787559        0.048917        0.008179
H        2.261766       -0.193557        0.970797
H        2.343412       -0.747190       -0.674524
H        1.854982        1.115077       -0.421468
N        0.438239       -0.405365       -0.084350
N       -0.422888        0.488400        0.114350
10
  Step 28: 28.0 fs
C       -1.817105       -0.114887       -0.036731
H       -2.383906        0.436108        0.893741
H       -2.129371        0.337947       -0.997348
H       -1.805712       -1.240828        0.153665
C        1.793418        0.043870        0.003276
H        2.260729       -0.199478        0.979455
H        2.342107       -0.708981       -0.621040
H        1.867395        1.152072       -0.441746
N        0.434325       -0.400573       -0.084154
N       -0.424919        0.477462        0.115109
10
  Step 29: 29.0 fs
C       -1.820689       -0.108127       -0.031322
H       -2.357001        0.392323        0.828844
H       -2.130732        0.321544       -0.985626
H       -1.784517       -1.179200        0.146682
C        1.800690        0.039721       -0.003032
H        2.254420       -0.196200        0.989929
H        2.339680       -0.661964       -0.570281
H        1.883581        1.168239       -0.448359
N        0.428785       -0.396121       -0.083415
N       -0.426439        0.465885        0.115538
10
  Step 30: 30.0 fs
C       -1.823500       -0.100017       -0.024345
H       -2.330410        0.344227        0.754659
H       -2.138149        0.299519       -0.975576
H       -1.765969       -1.121392        0.132927
C        1.808345        0.037958       -0.009428
H        2.241847       -0.182715        1.001046
H        2.346335       -0.622180       -0.536408
H        1.902555        1.160701       -0.440386
N        0.422210       -0.392532       -0.082362
N       -0.427671        0.454450        0.115780
10
  Step 31: 31.0 fs
C       -1.824232       -0.090661       -0.017965
H       -2.320696        0.308123        0.698150
H       -2.151658        0.274196       -0.971274
H       -1.749830       -1.088346        0.115183
C        1.815169        0.039833       -0.014530
H        2.222757       -0.159063        1.011663
H        2.373325       -0.606037       -0.532201
H        1.923301        1.130880       -0.418793
N        0.415292       -0.390401       -0.081268
N       -0.428924        0.444019        0.116005
10
  Step 32: 32.0 fs
C       -1.821285       -0.080915       -0.014810
H       -2.348536        0.301723        0.690584
H       -2.170503        0.247596       -0.974970
H       -1.735606       -1.093148        0.095463
C        1.820810        0.045085       -0.017882
H        2.197761       -0.126480        1.020745
H        2.420956       -0.615697       -0.557410
H        1.944874        1.085155       -0.386575
N        0.408716       -0.390316       -0.080409
N       -0.430553        0.435442        0.116385
10
  Step 33: 33.0 fs
C       -1.814811       -0.071549       -0.014870
H       -2.413335        0.323536        0.730954
H       -2.193118        0.221283       -0.986378
H       -1.724090       -1.129811        0.074216
C        1.825951        0.051655       -0.019949
H        2.168361       -0.087380        1.027732
H        2.476395       -0.638127       -0.598470
H        1.966881        1.036961       -0.349571
N        0.403063       -0.392722       -0.080026
N       -0.432849        0.429423        0.117060
10
  Step 34: 34.0 fs
C       -1.806966       -0.062943       -0.015840
H       -2.490841        0.355826        0.788460
H       -2.217117        0.196383       -1.002427
H       -1.717114       -1.179668        0.051711
C        1.831258        0.056813       -0.021172
H        2.136765       -0.045121        1.032981
H        2.525525       -0.659104       -0.640382
H        1.990141        1.006909       -0.316395
N        0.398745       -0.397810       -0.080296
N       -0.435934        0.426401        0.118095
10
  Step 35: 35.0 fs
C       -1.799781       -0.055655       -0.016144
H       -2.559543        0.384813        0.838377
H       -2.239557        0.173727       -1.018064
H       -1.716023       -1.224707        0.028985
C        1.836911        0.058459       -0.021770
H        2.105469       -0.003438        1.037883
H        2.559494       -0.669891       -0.672822
H        2.016056        1.013464       -0.294884
N        0.395937       -0.405442       -0.081300
N       -0.439705        0.426467        0.119475
10
  Step 36: 36.0 fs
C       -1.794528       -0.050255       -0.015333
H       -2.607974        0.403980        0.868927
H       -2.257546        0.154173       -1.028294
H       -1.721090       -1.253328        0.007620
C        1.842954        0.056470       -0.022178
H        2.076777        0.034312        1.044212
H        2.574256       -0.666608       -0.689921
H        2.043528        1.055859       -0.286498
N        0.394550       -0.415180       -0.083040
N       -0.443827        0.429365        0.121116
10
  Step 37: 37.0 fs
C       -1.791939       -0.047113       -0.013456
H       -2.631109        0.410859        0.875805
H       -2.268925        0.138770       -1.029787
H       -1.731778       -1.259917       -0.010691
C        1.849511        0.052466       -0.022978
H        2.052460        0.065736        1.052868
H        2.569045       -0.648619       -0.688996
H        2.068226        1.114863       -0.287168
N        0.394278       -0.426366       -0.085448
N       -0.447793        0.434573        0.122890
10
  Step 38: 38.0 fs
C       -1.792382       -0.046360       -0.010645
H       -2.627241        0.404812        0.858242
H       -2.272650        0.128744       -1.021625
H       -1.747112       -1.243218       -0.024377
C        1.856554        0.048321       -0.024416
H        2.033638        0.089493        1.062910
H        2.546025       -0.618043       -0.670315
H        2.085715        1.170031       -0.292321
N        0.394707       -0.438232       -0.088409
N       -0.451033        0.441419        0.124639
10
  Step 39: 39.0 fs
C       -1.795893       -0.047864       -0.006994
H       -2.597058        0.386427        0.817925
H       -2.268976        0.125406       -1.005571
H       -1.765854       -1.205939       -0.032103
C        1.863651        0.045534       -0.026189
H        2.020937        0.104991        1.071961
H        2.511186       -0.580474       -0.637960
H        2.093316        1.208169       -0.298956
N        0.395405       -0.449988       -0.091789
N       -0.453017        0.449168        0.126209
10
  Step 40: 40.0 fs
C       -1.802096       -0.051197       -0.002636
H       -2.544529        0.358034        0.759890
H       -2.259357        0.130029       -0.985838
H       -1.786551       -1.155515       -0.032956
C        1.869804        0.045446       -0.027405
H        2.014660        0.112107        1.077386
H        2.476133       -0.546716       -0.601650
H        2.090000        1.222765       -0.305459
N        0.395992       -0.460892       -0.095442
N       -0.453330        0.457091        0.127452
10
  Step 41: 41.0 fs
C       -1.809941       -0.055644        0.001914
H       -2.480344        0.325765        0.696040
H       -2.246064        0.143642       -0.968300
H       -1.807599       -1.105691       -0.026772
C        1.873568        0.049395       -0.026787
H        2.014871        0.111079        1.077532
H        2.457275       -0.532226       -0.576048
H        2.075826        1.211786       -0.311109
N        0.396174       -0.470308       -0.099227
N       -0.451715        0.464511        0.128248
10
  Step 42: 42.0 fs
C       -1.817338       -0.060525        0.005187
H       -2.426787        0.302760        0.650283
H       -2.231453        0.166643       -0.958605
H       -1.827518       -1.075575       -0.014321
C        1.873927        0.057968       -0.023563
H        2.021422        0.102535        1.072637
H        2.465758       -0.547609       -0.571206
H        2.051671        1.177062       -0.315945
N        0.395754       -0.477729       -0.103001
N       -0.448080        0.470822        0.128507
10
  Step 43: 43.0 fs
C       -1.821694       -0.065688        0.004955
H       -2.412119        0.306630        0.653071
H       -2.217111        0.198272       -0.959549
H       -1.845445       -1.080860        0.003050
C        1.871273        0.069915       -0.018371
H        2.033982        0.087508        1.065003
H        2.495743       -0.586620       -0.581717
H        2.019275        1.125285       -0.321081
N        0.394641       -0.482793       -0.106624
N       -0.442489        0.475512        0.128171
10
  Step 44: 44.0 fs
C       -1.822639       -0.070968        0.000938
H       -2.438930        0.339932        0.707544
H       -2.203595        0.236346       -0.969850
H       -1.861213       -1.120811        0.024001
C        1.866749        0.082479       -0.012461
H        2.052072        0.067415        1.058054
H        2.531684       -0.632489       -0.594123
H        1.981521        1.070484       -0.329651
N        0.392869       -0.485299       -0.109966
N       -0.435110        0.478206        0.127213
10
  Step 45: 45.0 fs
C       -1.822273       -0.075858       -0.004640
H       -2.481402        0.385797        0.783929
H       -2.190737        0.277452       -0.984884
H       -1.874809       -1.178350        0.046888
C        1.861206        0.092496       -0.006513
H        2.074999        0.044087        1.054562
H        2.560910       -0.670851       -0.598610
H        1.942123        1.033925       -0.347419
N        0.390591       -0.485223       -0.112918
N       -0.426204        0.478688        0.125638
10
  Step 46: 46.0 fs
C       -1.822361       -0.080185       -0.009862
H       -2.517920        0.428496        0.855141
H       -2.178154        0.317508       -0.998597
H       -1.886063       -1.233238        0.069467
C        1.855139        0.097613       -0.000604
H        2.101607        0.019901        1.055266
H        2.576428       -0.693367       -0.591076
H        1.903929        1.033206       -0.379727
N        0.388053       -0.482722       -0.115392
N       -0.416141        0.476916        0.123493
10
  Step 47: 47.0 fs
C       -1.823660       -0.083968       -0.013827
H       -2.538378        0.459747        0.907025
H       -2.165736        0.352614       -1.005755
H       -1.894793       -1.271049        0.089384
C        1.848949        0.097646        0.005031
H        2.130107       -0.002329        1.058952
H        2.575265       -0.696428       -0.571182
H        1.867864        1.064887       -0.424353
N        0.385563       -0.478136       -0.117337
N       -0.405399        0.473028        0.120868
10
  Step 48: 48.0 fs
C       -1.826324       -0.087167       -0.016170
H       -2.539242        0.476028        0.933576
H       -2.153828        0.379755       -1.003243
H       -1.900972       -1.284258        0.104673
C        1.842906        0.094136        0.009789
H        2.158147       -0.019749        1.063405
H        2.557246       -0.679912       -0.541047
H        1.834645        1.108700       -0.471294
N        0.383494       -0.471971       -0.118736
N       -0.394548        0.467348        0.117895
10
  Step 49: 49.0 fs
C       -1.830230       -0.089634       -0.016685
H       -2.519895        0.476097        0.932725
H       -2.143241        0.397124       -0.990472
H       -1.904739       -1.270642        0.113923
C        1.837032        0.088835        0.013230
H        2.183067       -0.029851        1.066498
H        2.525024       -0.647083       -0.505068
H        1.805707        1.145583       -0.510211
N        0.382278       -0.464866       -0.119625
N       -0.384228        0.460374        0.114741
10
  Step 50: 50.0 fs
C       -1.835082       -0.091109       -0.015208
H       -2.481445        0.460173        0.904916
H       -2.135204        0.404375       -0.969417
H       -1.906422       -1.232766        0.116355
C        1.831014        0.083259        0.015421
H        2.202326       -0.030798        1.066863
H        2.485313       -0.605711       -0.470595
H        1.782585        1.164474       -0.534404
N        0.382403       -0.457586       -0.120086
N       -0.375126        0.452764        0.111604
10
  Step 51: 51.0 fs
C       -1.840393       -0.091186       -0.011692
H       -2.427083        0.430337        0.853770
H       -2.131200        0.402636       -0.944429
H       -1.906558       -1.178713        0.111952
C        1.824097        0.078921        0.016949
H        2.213943       -0.021633        1.064122
H        2.450167       -0.569194       -0.448484
H        1.766428        1.160868       -0.540683
N        0.384355       -0.450957       -0.120245
N       -0.367934        0.445272        0.108697
10
  Step 52: 52.0 fs
C       -1.845330       -0.089317       -0.006535
H       -2.364038        0.392457        0.789186
H       -2.132791        0.394373       -0.921675
H       -1.905917       -1.123747        0.101660
C        1.815355        0.077213        0.018630
H        2.216808       -0.002419        1.058708
H        2.433743       -0.552829       -0.450167
H        1.757821        1.134803       -0.528488
N        0.388520       -0.445765       -0.120237
N       -0.363250        0.438622        0.106213
10
  Step 53: 53.0 fs
C       -1.848425       -0.085184       -0.001196
H       -2.307217        0.359959        0.733478
H       -2.141315        0.382750       -0.907652
H       -1.905394       -1.088871        0.087168
C        1.804659        0.078428        0.020767
H        2.210854        0.025691        1.051640
H        2.440921       -0.561899       -0.478850
H        1.756657        1.090654       -0.499779
N        0.395069       -0.442635       -0.120174
N       -0.361500        0.433379        0.104293
10
  Step 54: 54.0 fs
C       -1.847704       -0.079495        0.001655
H       -2.278431        0.353771        0.721534
H       -2.157438        0.370477       -0.906599
H       -1.905638       -1.090087        0.069900
C        1.793123        0.081197        0.022873
H        2.197057        0.060515        1.044440
H        2.461984       -0.586488       -0.525094
H        1.762092        1.038582       -0.459888
N        0.403868       -0.441907       -0.120109
N       -0.362838        0.429830        0.102983
10
  Step 55: 55.0 fs
C       -1.842401       -0.073447        0.000666
H       -2.287023        0.382914        0.769482
H       -2.180753        0.359006       -0.918547
H       -1.906626       -1.124585        0.050433
C        1.782186        0.083202        0.024446
H        2.177255        0.099058        1.039107
H        2.483210       -0.612420       -0.574901
H        1.772712        0.996544       -0.418709
N        0.414457       -0.443587       -0.120031
N       -0.367098        0.427938        0.102219
10
  Step 56: 56.0 fs
C       -1.834070       -0.067212       -0.002216
H       -2.317012        0.430015        0.849895
H       -2.209536        0.348341       -0.939144
H       -1.907714       -1.174082        0.029417
C        1.772861        0.082134        0.025457
H        2.153727        0.137901        1.037862
H        2.495347       -0.629749       -0.617206
H        1.787154        0.986735       -0.388615
N        0.426105       -0.447359       -0.119870
N       -0.373806        0.427378        0.101837
10
  Step 57: 57.0 fs
C       -1.824624       -0.060751       -0.004815
H       -2.349730        0.474747        0.929151
H       -2.240773        0.337568       -0.961159
H       -1.908038       -1.219177        0.008139