10
  Step 0: 0.0 fs
C       -1.803705       -0.067738        0.000064
H       -2.311509        0.330688        0.889246
H       -2.311346        0.329954       -0.889490
H       -1.816426       -1.165820        0.000681
C        1.803675        0.067713        0.000025
H        2.310874       -0.329676        0.890050
H        2.312178       -0.330870       -0.888642
H        1.816227        1.165792       -0.000419
N        0.410954       -0.460074       -0.000164
N       -0.410930        0.460087       -0.000118
10
  Step 1: 1.0 fs
C       -1.798385       -0.069474       -0.001545
H       -2.297813        0.293422        0.862041
H       -2.379775        0.327269       -0.914899
H       -1.830053       -1.162119        0.006572
C        1.800788        0.048020        0.005097
H        2.283198       -0.322905        0.868740
H        2.331727       -0.284775       -0.955690
H        1.785745        1.252949       -0.030887
N        0.418555       -0.461936        0.007483
N       -0.412916        0.472844        0.001181
10
  Step 2: 2.0 fs
C       -1.793417       -0.071154       -0.004711
H       -2.289933        0.262156        0.845731
H       -2.438911        0.320507       -0.929649
H       -1.841808       -1.160244        0.011244
C        1.797791        0.030857        0.008120
H        2.264139       -0.320835        0.857999
H        2.345033       -0.237869       -1.010356
H        1.756518        1.316236       -0.058276
N        0.425441       -0.463325        0.015018
N       -0.414438        0.484902        0.002346
10
  Step 3: 3.0 fs
C       -1.789045       -0.072830       -0.010305
H       -2.291985        0.241110        0.848027
H       -2.482476        0.308092       -0.928471
H       -1.849986       -1.161439        0.013552
C        1.794522        0.017524        0.007650
H        2.260292       -0.326668        0.865599
H        2.348374       -0.191479       -1.044455
H        1.729949        1.346668       -0.079941
N        0.431023       -0.463861        0.022338
N       -0.415145        0.495686        0.003273
10
  Step 4: 4.0 fs
C       -1.785685       -0.074463       -0.018187
H       -2.303070        0.230553        0.868058
H       -2.506997        0.290229       -0.910162
H       -1.853162       -1.165905        0.012706
C        1.791169        0.008507        0.003510
H        2.271986       -0.339419        0.889184
H        2.340367       -0.148168       -1.054277
H        1.707201        1.341941       -0.093981
N        0.434838       -0.463298        0.029353
N       -0.414801        0.504758        0.003880
10
  Step 5: 5.0 fs
C       -1.783883       -0.075951       -0.027366
H       -2.317774        0.227471        0.897302
H       -2.511621        0.268464       -0.876726
H       -1.850279       -1.172706        0.008446
C        1.788238        0.003805       -0.003354
H        2.293829       -0.354696        0.917395
H        2.321649       -0.111107       -1.040290
H        1.689231        1.302879       -0.099001
N        0.436542       -0.461540        0.035995
N       -0.413285        0.511826        0.004105
10
  Step 6: 6.0 fs
C       -1.783950       -0.077302       -0.036484
H       -2.329771        0.227977        0.925513
H       -2.498603        0.245692       -0.833527
H       -1.840725       -1.180138        0.001023
C        1.786163        0.003224       -0.011516
H        2.318993       -0.367816        0.937677
H        2.295024       -0.083818       -1.007499
H        1.676857        1.232876       -0.093910
N        0.435918       -0.458636        0.042215
N       -0.410590        0.516734        0.003902
10
  Step 7: 7.0 fs
C       -1.785623       -0.078745       -0.044066
H       -2.334492        0.228890        0.945070
H       -2.474674        0.226554       -0.790339
H       -1.824389       -1.186369       -0.008977
C        1.784997        0.006349       -0.019374
H        2.342119       -0.375631        0.941396
H        2.266130       -0.070038       -0.966800
H        1.670599        1.139830       -0.077942
N        0.432884       -0.454775        0.047976
N       -0.406816        0.519460        0.003229
10
  Step 8: 8.0 fs
C       -1.787985       -0.080703       -0.048577
H       -2.329634        0.228055        0.951820
H       -2.451494        0.217326       -0.761345
H       -1.801708       -1.190004       -0.020893
C        1.784399        0.012065       -0.025166
H        2.359939       -0.376785        0.924618
H        2.243417       -0.073337       -0.935161
H        1.670049        1.041339       -0.050970
N        0.427510       -0.450250        0.053252
N       -0.402164        0.520109        0.002057
10
  Step 9: 9.0 fs
C       -1.789907       -0.083575       -0.048810
H       -2.314955        0.224324        0.944754
H       -2.441048        0.223733       -0.760016
H       -1.773690       -1.190453       -0.034208
C        1.784007        0.017826       -0.027430
H        2.371185       -0.371651        0.887654
H        2.234779       -0.096054       -0.929455
H        1.672781        0.971887       -0.013745
N        0.420038       -0.445422        0.058026
N       -0.396917        0.518910        0.000364
10
  Step 10: 10.0 fs
C       -1.790940       -0.087349       -0.044777
H       -2.292107        0.217561        0.925854
H       -2.445519        0.246349       -0.788443
H       -1.741854       -1.188079       -0.048654
C        1.783914        0.020312       -0.026200
H        2.376795       -0.362625        0.835085
H        2.240837       -0.137096       -0.953280
H        1.675193        0.972532        0.033045
N        0.410896       -0.440667        0.062304
N       -0.391436        0.516206       -0.001850
10
  Step 11: 11.0 fs
C       -1.791485       -0.091510       -0.037974
H       -2.264802        0.208854        0.900577
H       -2.455389        0.279171       -0.834741
H       -1.708077       -1.184070       -0.064182
C        1.784242        0.019407       -0.023220
H        2.380694       -0.354603        0.776297
H        2.253794       -0.190551       -0.993831
H        1.678200        1.042614        0.087504
N        0.400693       -0.436364        0.066129
N       -0.386162        0.512446       -0.004559
10
  Step 12: 12.0 fs
C       -1.791952       -0.095464       -0.030561
H       -2.238858        0.200643        0.878083
H       -2.459228        0.314021       -0.883089
H       -1.674413       -1.179951       -0.080821
C        1.784601        0.018347       -0.020550
H        2.390124       -0.354429        0.724760
H        2.264105       -0.247996       -1.034211
H        1.686500        1.139848        0.143066
N        0.390205       -0.432877        0.069567
N       -0.381614        0.508167       -0.007726
10
  Step 13: 13.0 fs
C       -1.792310       -0.098862       -0.024568
H       -2.221043        0.196140        0.869434
H       -2.450061        0.344372       -0.921446
H       -1.642962       -1.176913       -0.098477
C        1.784475        0.019669       -0.019670
H        2.412373       -0.368011        0.692576
H        2.265225       -0.301704       -1.062543
H        1.702498        1.229166        0.192550
N        0.380301       -0.430553        0.072708
N       -0.378332        0.503956       -0.011310
10
  Step 14: 14.0 fs
C       -1.792351       -0.101523       -0.021288
H       -2.215799        0.197257        0.881544
H       -2.425537        0.366178       -0.942796
H       -1.615773       -1.175396       -0.116763
C        1.783854        0.024156       -0.020960
H        2.447879       -0.396051        0.682241
H        2.254044       -0.345934       -1.073054
H        1.726017        1.293009        0.231321
N        0.371811       -0.429694        0.075646
N       -0.376818        0.500381       -0.015264
10
  Step 15: 15.0 fs
C       -1.792059       -0.103224       -0.020873
H       -2.222399        0.202574        0.911287
H       -2.386451        0.377491       -0.944131
H       -1.594717       -1.175122       -0.134969
C        1.783415        0.031396       -0.023733
H        2.488158       -0.433030        0.685952
H        2.229977       -0.376820       -1.064410
H        1.755757        1.323914        0.256780
N        0.365388       -0.430489        0.078477
N       -0.377429        0.497873       -0.019530
10
  Step 16: 16.0 fs
C       -1.791585       -0.103719       -0.022540
H       -2.236078        0.208108        0.947601
H       -2.336091        0.378312       -0.926080
H       -1.581331       -1.175379       -0.152156
C        1.783974        0.040566       -0.026923
H        2.522168       -0.471142        0.693487
H        2.194390       -0.392167       -1.038591
H        1.790089        1.319136        0.267470
N        0.361425       -0.432940        0.081291
N       -0.380313        0.496643       -0.024027
10
  Step 17: 17.0 fs
C       -1.790961       -0.102953       -0.025093
H       -2.251439        0.209853        0.978514
H       -2.280341        0.371004       -0.893527
H       -1.576662       -1.175349       -0.167317
C        1.785989        0.050910       -0.029511
H        2.541896       -0.503979        0.697615
H        2.150513       -0.391662       -1.000920
H        1.827305        1.278782        0.262709
N        0.360033       -0.436821        0.084163
N       -0.385364        0.496634       -0.028637
10
  Step 18: 18.0 fs
C       -1.789903       -0.101253       -0.027148
H       -2.264515        0.205325        0.995581
H       -2.228184        0.361269       -0.857183
H       -1.581161       -1.174407       -0.179560
C        1.789440        0.061813       -0.030509
H        2.543491       -0.527613        0.694699
H        2.103536       -0.377618       -0.961100
H        1.865654        1.206682        0.242871
N        0.361059       -0.441685        0.087156
N       -0.392236        0.497536       -0.033206
10
  Step 19: 19.0 fs
C       -1.787862       -0.099308       -0.027197
H       -2.273116        0.193731        0.994615
H       -2.190766        0.358023       -0.833168
H       -1.594620       -1.172384       -0.188300
C        1.793933        0.072464       -0.028951
H        2.526362       -0.540312        0.683597
H        2.060030       -0.355435       -0.933272
H        1.903622        1.114318        0.210496
N        0.364144       -0.446915        0.090310
N       -0.400394        0.498860       -0.037557
10
  Step 20: 20.0 fs
C       -1.784426       -0.097783       -0.024247
H       -2.276753        0.175758        0.975515
H       -2.176619        0.368931       -0.834995
H       -1.616186       -1.169742       -0.193397
C        1.798801        0.080983       -0.024360
H        2.492610       -0.542424        0.665064
H        2.025745       -0.331816       -0.931763
H        1.941250        1.029144        0.172280
N        0.368815       -0.451800        0.093647
N       -0.409196        0.500038       -0.041508
10
  Step 21: 21.0 fs
C       -1.779793       -0.096696       -0.018845
H       -2.276719        0.153454        0.942386
H       -2.185643        0.393120       -0.861191
H       -1.644462       -1.167536       -0.195224
C        1.803127        0.083860       -0.017507
H        2.447077       -0.536683        0.641883
H        2.002777       -0.310219       -0.961537
H        1.982671        0.996874        0.138677
N        0.374576       -0.455627        0.097160
N       -0.418004        0.500529       -0.044892
10
  Step 22: 22.0 fs
C       -1.774582       -0.095539       -0.012958
H       -2.276491        0.130220        0.903898
H       -2.210452        0.421949       -0.897060
H       -1.677701       -1.166947       -0.194604
C        1.806034        0.079240       -0.010055
H        2.398055       -0.529200        0.619840
H        1.989589       -0.289001       -1.013738
H        2.032002        1.041932        0.114388
N        0.380957       -0.457778        0.100811
N       -0.426252        0.499895       -0.047576
10
  Step 23: 23.0 fs
C       -1.769304       -0.093914       -0.008834
H       -2.281598        0.110403        0.872279
H       -2.242517        0.446413       -0.927383
H       -1.713988       -1.168610       -0.192591
C        1.807366        0.070418       -0.003705
H        2.357289       -0.529751        0.608155
H        1.983637       -0.264964       -1.072667
H        2.082842        1.130323        0.094775
N        0.387504       -0.457819        0.104538
N       -0.433473        0.497837       -0.049473
10
  Step 24: 24.0 fs
C       -1.764304       -0.091764       -0.008102
H       -2.297178        0.097874        0.858437
H       -2.275260        0.460895       -0.942612
H       -1.751348       -1.172238       -0.190197
C        1.807266        0.061593       -0.000117
H        2.335812       -0.547577        0.615613
H        1.982925       -0.236387       -1.123830
H        2.125528        1.219052        0.076761
N        0.393832       -0.455515        0.108266
N       -0.439307        0.494215       -0.050541
10
  Step 25: 25.0 fs
C       -1.760132       -0.089194       -0.011233
H       -2.323595        0.094150        0.864818
H       -2.304238        0.463023       -0.938567
H       -1.787816       -1.176660       -0.188118
C        1.806171        0.054766       -0.000071
H        2.336026       -0.582882        0.642032
H        1.986192       -0.203519       -1.157320
H        2.154670        1.284875        0.060587
N        0.399652       -0.450826        0.111925
N       -0.443501        0.489044       -0.050784
10
  Step 26: 26.0 fs
C       -1.757702       -0.086332       -0.017571
H       -2.354953        0.098134        0.884129
H       -2.326693        0.452772       -0.914896
H       -1.821513       -1.180242       -0.186609
C        1.804991        0.050061       -0.003133
H        2.350772       -0.625400        0.676746
H        1.992629       -0.168004       -1.168130
H        2.168267        1.318415        0.047492
N        0.404783       -0.443896        0.115465
N       -0.445907        0.482493       -0.050250
10
  Step 27: 27.0 fs
C       -1.757941       -0.083380       -0.025914
H       -2.382854        0.107543        0.905741
H       -2.341600        0.432197       -0.874559
H       -1.850773       -1.181441       -0.185533
C        1.804645        0.046998       -0.008347
H        2.370637       -0.662788        0.706969
H        2.001712       -0.132336       -1.155480
H        2.165932        1.316832        0.038786
N        0.409149       -0.435042        0.118865
N       -0.446498        0.474863       -0.049028
10
  Step 28: 28.0 fs
C       -1.761345       -0.080675       -0.034941
H       -2.400461        0.120119        0.921427
H       -2.350372        0.405746       -0.824292
H       -1.874272       -1.179370       -0.184539
C        1.805726        0.045231       -0.014715
H        2.388731       -0.686481        0.723737
H        2.013259       -0.099630       -1.122903
H        2.148119        1.280613        0.035748
N        0.412772       -0.424746        0.122132
N       -0.445392        0.466571       -0.047254
10
  Step 29: 29.0 fs
C       -1.767739       -0.078731       -0.043233
H       -2.403773        0.134006        0.926758
H       -2.358028        0.380773       -0.775441
H       -1.891145       -1.174201       -0.183272
C        1.808433        0.044605       -0.021167
H        2.401164       -0.692224        0.722512
H        2.027728       -0.073555       -1.079216
H        2.116142        1.213350        0.039749
N        0.415777       -0.413642        0.125295
N       -0.442868        0.458141       -0.045118
10
  Step 30: 30.0 fs
C       -1.776302       -0.078158       -0.049346
H       -2.391516        0.147815        0.920745
H       -2.372925        0.366651       -0.742533
H       -1.901070       -1.167241       -0.181548
C        1.812543        0.044835       -0.026455
H        2.406373       -0.679116        0.702278
H        2.046550       -0.058005       -1.038926
H        2.072830        1.124141        0.052424
N        0.418384       -0.402488        0.128390
N       -0.439366        0.450180       -0.042858
10
  Step 31: 31.0 fs
C       -1.786073       -0.079306       -0.052363
H       -2.364798        0.160706        0.905264
H       -2.401518        0.370178       -0.736108
H       -1.904315       -1.160705       -0.179465
C        1.817355        0.044907       -0.029463
H        2.404889       -0.649314        0.665283
H        2.071772       -0.056074       -1.018591
H        2.023782        1.033406        0.076011
N        0.420891       -0.392130        0.131447
N       -0.435433        0.443339       -0.040749
10
  Step 32: 32.0 fs
C       -1.796623       -0.081864       -0.052605
H       -2.327122        0.172615        0.885108
H       -2.440958        0.390057       -0.754567
H       -1.901695       -1.157160       -0.177385
C        1.821809        0.042578       -0.030196
H        2.399960       -0.608828        0.617768
H        2.103998       -0.068214       -1.026624
H        1.977517        0.977780        0.114060
N        0.423622       -0.383427        0.134490
N       -0.431636        0.438245       -0.039069
10
  Step 33: 33.0 fs
C       -1.807973       -0.085079       -0.051437
H       -2.284285        0.184533        0.867948
H       -2.480749        0.418295       -0.786744
H       -1.894447       -1.158622       -0.175770
C        1.825028        0.036097       -0.030342
H        2.398863       -0.568787        0.571001
H        2.140237       -0.090955       -1.056405
H        1.940014        0.989609        0.170001
N        0.426831       -0.377158        0.137531
N       -0.428447        0.435403       -0.038068
10
  Step 34: 34.0 fs
C       -1.820025       -0.088313       -0.050483
H       -2.243401        0.198395        0.863201
H       -2.510653        0.446116       -0.820513
H       -1.884037       -1.165594       -0.174917
C        1.826676        0.027757       -0.031918
H        2.412822       -0.544085        0.539899
H        2.175024       -0.118336       -1.093257
H        1.909465        1.054408        0.239178
N        0.430614       -0.373901        0.140559
N       -0.426162        0.435096       -0.037942
10
  Step 35: 35.0 fs
C       -1.832495       -0.091243       -0.050916
H       -2.210051        0.215764        0.877549
H       -2.524532        0.467139       -0.847076
H       -1.871986       -1.176663       -0.174724
C        1.826741        0.021438       -0.035753
H        2.449589       -0.544091        0.534287
H        2.203117       -0.144590       -1.124166
H        1.883233        1.132616        0.309339
N        0.434892       -0.373917        0.143530
N       -0.424859        0.437333       -0.038811
10
  Step 36: 36.0 fs
C       -1.845133       -0.093671       -0.052987
H       -2.185893        0.235799        0.909564
H       -2.520177        0.477725       -0.861280
H       -1.859759       -1.189002       -0.174721
C        1.825999        0.018727       -0.041225
H        2.503108       -0.563432        0.549735
H        2.220871       -0.165517       -1.141167
H        1.861231        1.197510        0.370041
N        0.439418       -0.377110        0.146346
N       -0.424397        0.441841       -0.040702
10
  Step 37: 37.0 fs
C       -1.857732       -0.095394       -0.056076
H       -2.169458        0.255062        0.949904
H       -2.498366        0.476540       -0.861063
H       -1.848695       -1.199357       -0.174251
C        1.825769        0.019334       -0.047014
H        2.558176       -0.588747        0.573591
H        2.226464       -0.178522       -1.140901
H        1.844248        1.237189        0.415177
N        0.443797       -0.383087        0.148875
N       -0.424474        0.448122       -0.043561
10
  Step 38: 38.0 fs
C       -1.869933       -0.096285       -0.059159
H       -2.158757        0.269422        0.987105
H       -2.462610        0.464590       -0.847550
H       -1.839924       -1.205052       -0.172734
C        1.827047        0.022592       -0.051920
H        2.601750       -0.609154        0.595207
H        2.219793       -0.182286       -1.123673
H        1.833050        1.247251        0.441501
N        0.447556       -0.391276        0.150979
N       -0.424697        0.455534       -0.047270
10
  Step 39: 39.0 fs
C       -1.881090       -0.096450       -0.061099
H       -2.152638        0.275848        1.012287
H       -2.419531        0.445883       -0.826041
H       -1.834302       -1.204575       -0.169820
C        1.830217        0.028016       -0.054974
H        2.626480       -0.618682        0.608527
H        2.202521       -0.176615       -1.093473
H        1.828231        1.226805        0.447383
N        0.450214       -0.401030        0.152533
N       -0.424645        0.463382       -0.051670
10
  Step 40: 40.0 fs
C       -1.890281       -0.096294       -0.060684
H       -2.150840        0.272943        1.020435
H       -2.378898        0.427963       -0.806819
H       -1.832333       -1.197957       -0.165438
C        1.835143        0.035298       -0.055248
H        2.629496       -0.614978        0.610869
H        2.178234       -0.162504       -1.058644
H        1.830207        1.177319        0.432409
N        0.451354       -0.411706        0.153438
N       -0.423937        0.470986       -0.056579
10
  Step 41: 41.0 fs
C       -1.896540       -0.096360       -0.056800
H       -2.153718        0.260904        1.010382
H       -2.351234        0.420140       -0.802837
H       -1.834114       -1.186925       -0.159832
C        1.841318        0.044090       -0.051842
H        2.611138       -0.598189        0.601813
H        2.151980       -0.142114       -1.031562
H        1.839099        1.104131        0.398097
N        0.450666       -0.422706        0.153630
N       -0.422261        0.477735       -0.061814
10
  Step 42: 42.0 fs
C       -1.899357       -0.096806       -0.049186
H       -2.162144        0.241501        0.984963
H       -2.341846        0.427150       -0.820918
H       -1.839321       -1.174782       -0.153572
C        1.848042        0.053514       -0.044396
H        2.574761       -0.570889        0.583072
H        2.128508       -0.118061       -1.024568
H        1.854475        1.021253        0.350076
N        0.447968       -0.433474        0.153079
N       -0.419404        0.483097       -0.067188
10
  Step 43: 43.0 fs
C       -1.898928       -0.097099       -0.039086
H       -2.177667        0.218237        0.951749
H       -2.347471        0.444432       -0.854691
H       -1.847285       -1.165647       -0.147479
C        1.854548        0.061381       -0.034117
H        2.527642       -0.538965        0.559306
H        2.109724       -0.092042       -1.041870
H        1.875262        0.959830        0.301406
N        0.443243       -0.443503        0.151786
N       -0.415279        0.486659       -0.072518
10
  Step 44: 44.0 fs
C       -1.895713       -0.096507       -0.028746
H       -2.202751        0.196171        0.922800
H       -2.360661        0.462661       -0.890509
H       -1.857185       -1.162885       -0.142488
C        1.859821        0.064601       -0.023923
H        2.482387       -0.513022        0.539559
H        2.094441       -0.064561       -1.075997
H        1.900571        0.964252        0.269445
N        0.436651       -0.452325        0.149772
N       -0.409958        0.488128       -0.077622
10
  Step 45: 45.0 fs
C       -1.890052       -0.094669       -0.020308
H       -2.240060        0.180347        0.910449
H       -2.374859        0.474135       -0.916588
H       -1.868221       -1.167319       -0.139307
C        1.862576        0.063381       -0.016255
H        2.455272       -0.507177        0.536359
H        2.080777       -0.036193       -1.113999
H        1.929647        1.042765        0.256939
N        0.428492       -0.459554        0.147081
N       -0.403666        0.487348       -0.082332
10
  Step 46: 46.0 fs
C       -1.882299       -0.091557       -0.014853
H       -2.289696        0.172964        0.918776
H       -2.385793        0.474669       -0.926126
H       -1.879583       -1.176742       -0.138107
C        1.862194        0.061792       -0.011762
H        2.456186       -0.529447        0.557092
H        2.067711       -0.008210       -1.144396
H        1.959678        1.152457        0.252031
N        0.419156       -0.464958        0.143782
N       -0.396757        0.484312       -0.086508
10
  Step 47: 47.0 fs
C       -1.873093       -0.087265       -0.012116
H       -2.346672        0.172333        0.939952
H       -2.391175        0.463121       -0.916883
H       -1.890373       -1.186982       -0.138461
C        1.859446        0.062306       -0.009846
H        2.478625       -0.571604        0.594377
H        2.055100        0.017853       -1.159638
H        1.987179        1.253944        0.246809
N        0.409117       -0.468475        0.139966
N       -0.389673        0.479179       -0.090055
10
  Step 48: 48.0 fs
C       -1.863277       -0.082000       -0.011110
H       -2.402520        0.175113        0.961162
H       -2.390381        0.440786       -0.890319
H       -1.899607       -1.193666       -0.139532
C        1.855694        0.065079       -0.009378
H        2.507698       -0.616950        0.633032
H        2.043400        0.040528       -1.156417
H        2.009624        1.327496        0.239065
N        0.398924       -0.470236        0.135764
N       -0.382915        0.472278       -0.092934
10
  Step 49: 49.0 fs
C       -1.853553       -0.076150       -0.010766
H       -2.449070        0.178617        0.972476
H       -2.384701        0.411300       -0.851603
H       -1.906261       -1.193558       -0.140332
C        1.851956        0.069599       -0.009364
H        2.531561       -0.652185        0.661162
H        2.033466        0.058494       -1.135507
H        2.025390        1.365259        0.229031
N        0.389183       -0.470561        0.131338
N       -0.377020        0.464105       -0.095166
10
  Step 50: 50.0 fs
C       -1.844253       -0.070279       -0.010030
H       -2.480333        0.181352        0.968905
H       -2.377981        0.380818       -0.810174
H       -1.909392       -1.185378       -0.139951
C        1.848746        0.075431       -0.009000
H        2.543709       -0.669967        0.672481
H        2.026508        0.070582       -1.101888
H        2.033402        1.364826        0.217751
N        0.380534       -0.469937        0.126882
N       -0.372548        0.455301       -0.096827
10
  Step 51: 51.0 fs
C       -1.835305       -0.065010       -0.007889
H       -2.492879        0.182885        0.949802
H       -2.376430        0.357143       -0.778743
H       -1.908246       -1.170121       -0.137737
C        1.846226        0.082279       -0.007490
H        2.541387       -0.667228        0.664769
H        2.024067        0.075762       -1.064754
H        2.032919        1.326787        0.206662
N        0.373615       -0.468955        0.122600
N       -0.370051        0.446600       -0.098041
10
  Step 52: 52.0 fs
C       -1.826489       -0.060747       -0.003716
H       -2.485732        0.183646        0.917943
H       -2.385484        0.346503       -0.768097
H       -1.902384       -1.150946       -0.133434
C        1.844298        0.089847       -0.004081
H        2.524535       -0.644074        0.638795
H        2.027799        0.073128       -1.036130
H        2.023608        1.255041        0.197661
N        0.369002       -0.468228        0.118684
N       -0.370009        0.438751       -0.098950
10
  Step 53: 53.0 fs
C       -1.817840       -0.057395        0.002115
H       -2.460730        0.185036        0.879512
H       -2.404638        0.349585       -0.779847
H       -1.891777       -1.132614       -0.127250
C        1.842606        0.097574        0.001473
H        2.495937       -0.604031        0.598468
H        2.038685        0.062045       -1.025890
H        2.006021        1.160141        0.193572
N        0.367131       -0.468261        0.115279
N       -0.372744        0.432396       -0.099675
10
  Step 54: 54.0 fs
C       -1.809625       -0.054492        0.008157
H       -2.423267        0.189677        0.844440
H       -2.426885        0.361670       -0.806012
H       -1.876860       -1.120214       -0.119763
C        1.840406        0.104088        0.008188
H        2.462589       -0.555690        0.551999
H        2.055994        0.042758       -1.035461
H        1.982700        1.066698        0.199150
N        0.368219       -0.469347        0.112460
N       -0.378323        0.427951       -0.100289
10
  Step 55: 55.0 fs
C       -1.801938       -0.051695        0.012487
H       -2.382146        0.201381        0.825676
H       -2.443780        0.376538       -0.835695
H       -1.858486       -1.117208       -0.111553
C        1.836366        0.106890        0.013624
H        2.437515       -0.514587        0.512951
H        2.077117        0.017338       -1.057091
H        1.958835        1.018255        0.222089
N        0.372211       -0.471498        0.110215
N       -0.386502        0.425533       -0.100801
10
  Step 56: 56.0 fs
C       -1.794688       -0.049024        0.013506
H       -2.345920        0.223693        0.834265
H       -2.449431        0.389299       -0.860126
H       -1.837827       -1.123837       -0.102746
C        1.829103        0.104642        0.015103
H        2.436866       -0.499243        0.496642
H        2.098668       -0.010397       -1.079753
H        1.937858        1.046412        0.267937
N        0.378764       -0.474466        0.108452
N       -0.396727        0.424957       -0.101168
10
  Step 57: 57.0 fs
C       -1.788089       -0.046649        0.010753
H       -2.316641        0.256810        0.870763
H       -2.441145        0.396959       -0.873755
H       -1.816312       -1.137070       -0.092858