10
  Step 0: 0.0 fs
C       -1.803709       -0.067739        0.000061
H       -2.311486        0.330693        0.889259
H       -2.311370        0.329949       -0.889474
H       -1.816426       -1.165814        0.000668
C        1.803675        0.067712        0.000026
H        2.310884       -0.329687        0.890044
H        2.312183       -0.330875       -0.888635
H        1.816213        1.165797       -0.000419
N        0.410957       -0.460073       -0.000162
N       -0.410929        0.460087       -0.000120
10
  Step 1: 1.0 fs
C       -1.813120       -0.073783       -0.004630
H       -2.298080        0.325011        0.939718
H       -2.227826        0.328669       -0.888825
H       -1.853127       -1.181038        0.044733
C        1.795896        0.067176        0.003135
H        2.301427       -0.353469        0.918920
H        2.378304       -0.368670       -0.970644
H        1.837555        1.174866        0.013911
N        0.419312       -0.457210       -0.001695
N       -0.414503        0.468239       -0.001288
10
  Step 2: 2.0 fs
C       -1.821916       -0.080096       -0.007448
H       -2.282879        0.318143        0.979566
H       -2.155071        0.331848       -0.898419
H       -1.888147       -1.192972        0.086102
C        1.789652        0.065971        0.005252
H        2.289382       -0.374441        0.940189
H        2.431627       -0.397242       -1.031363
H        1.858331        1.180618        0.027427
N        0.427126       -0.453970       -0.003286
N       -0.417703        0.475719       -0.002385
10
  Step 3: 3.0 fs
C       -1.829691       -0.086866       -0.007163
H       -2.265890        0.310261        1.001715
H       -2.099942        0.341977       -0.924462
H       -1.919949       -1.199081        0.122036
C        1.785748        0.063937        0.006254
H        2.273615       -0.390733        0.949021
H        2.466718       -0.413270       -1.062843
H        1.877907        1.180550        0.039400
N        0.433924       -0.450068       -0.004990
N       -0.420193        0.481971       -0.003321
10
  Step 4: 4.0 fs
C       -1.836366       -0.093860       -0.003799
H       -2.248521        0.302730        1.003206
H       -2.063874        0.356552       -0.962595
H       -1.947191       -1.198569        0.150122
C        1.784595        0.061096        0.006183
H        2.254448       -0.401691        0.943804
H        2.481396       -0.415848       -1.062694
H        1.895674        1.173653        0.049296
N        0.439312       -0.445320       -0.006857
N       -0.421713        0.486579       -0.004008
10
  Step 5: 5.0 fs
C       -1.841950       -0.100507        0.001652
H       -2.233182        0.297821        0.985082
H       -2.045572        0.369689       -1.001241
H       -1.968828       -1.192702        0.168653
C        1.786343        0.057508        0.004979
H        2.233520       -0.407937        0.926112
H        2.474925       -0.405091       -1.030946
H        1.911164        1.160686        0.056881
N        0.442993       -0.439654       -0.008931
N       -0.422113        0.489279       -0.004378
10
  Step 6: 6.0 fs
C       -1.846334       -0.106240        0.007857
H       -2.223177        0.298719        0.952444
H       -2.043315        0.375893       -1.029271
H       -1.984228       -1.184483        0.176836
C        1.790899        0.053270        0.002442
H        2.213623       -0.411415        0.900733
H        2.447770       -0.381963       -0.969656
H        1.924125        1.144112        0.062271
N        0.444778       -0.433105       -0.011252
N       -0.421364        0.489952       -0.004395
10
  Step 7: 7.0 fs
C       -1.849275       -0.110698        0.013465
H       -2.222499        0.309328        0.913951
H       -2.055412        0.371739       -1.039567
H       -1.993220       -1.177798        0.174894
C        1.797831        0.048604       -0.001580
H        2.198223       -0.415200        0.875189
H        2.402813       -0.349099       -0.884804
H        1.934545        1.127584        0.066000
N        0.444613       -0.425818       -0.013848
N       -0.419555        0.488635       -0.004045
10
  Step 8: 8.0 fs
C       -1.850488       -0.113775        0.017318
H       -2.235050        0.333437        0.879619
H       -2.080040        0.355968       -1.029420
H       -1.996026       -1.176091        0.164020
C        1.806103        0.044072       -0.006564
H        2.190541       -0.422664        0.858055
H        2.349203       -0.313321       -0.791970
H        1.942601        1.115030        0.068961
N        0.442617       -0.418053       -0.016737
N       -0.416899        0.485533       -0.003326
10
  Step 9: 9.0 fs
C       -1.849849       -0.115498        0.018887
H       -2.262487        0.372117        0.855453
H       -2.115198        0.329240       -1.000271
H       -1.993071       -1.180937        0.146207
C        1.813623        0.040906       -0.010167
H        2.192020       -0.435643        0.855129
H        2.309111       -0.290039       -0.725827
H        1.948583        1.109285        0.072101
N        0.439106       -0.410197       -0.019927
N       -0.413738        0.481028       -0.002245
10
  Step 10: 10.0 fs
C       -1.847557       -0.115894        0.018623
H       -2.302210        0.421308        0.839844
H       -2.159025        0.294190       -0.958009
H       -1.984806       -1.191313        0.124014
C        1.817796        0.040678       -0.008680
H        2.201584       -0.453157        0.866228
H        2.312096       -0.299569       -0.731029
H        1.952865        1.111099        0.075988
N        0.434587       -0.402759       -0.023422
N       -0.410550        0.475670       -0.000822
10
  Step 11: 11.0 fs
C       -1.844035       -0.115007        0.017755
H       -2.347933        0.472752        0.826349
H       -2.210442        0.255363       -0.913034
H       -1.971623       -1.204112        0.100329
C        1.818960        0.043029       -0.002092
H        2.216434       -0.472058        0.886004
H        2.354508       -0.339723       -0.802802
H        1.955871        1.119460        0.080654
N        0.429664       -0.396346       -0.027205
N       -0.407938        0.470145        0.000904
10
  Step 12: 12.0 fs
C       -1.839683       -0.113008        0.017662
H       -2.392444        0.517713        0.809218
H       -2.269490        0.218191       -0.878059
H       -1.953872       -1.215502        0.078134
C        1.819747        0.046001        0.006345
H        2.233272       -0.488546        0.906984
H        2.406004       -0.388606       -0.895018
H        1.958011        1.131954        0.085647
N        0.424982       -0.391597       -0.031249
N       -0.406555        0.465202        0.002878
10
  Step 13: 13.0 fs
C       -1.834862       -0.110073        0.019145
H       -2.429719        0.549651        0.785939
H       -2.335577        0.186299       -0.861695
H       -1.931928       -1.222280        0.060258
C        1.821807        0.048325        0.014557
H        2.249238       -0.499435        0.922432
H        2.447117       -0.430905       -0.975985
H        1.959601        1.145081        0.090230
N        0.421136       -0.389070       -0.035535
N       -0.406967        0.461536        0.005027
10
  Step 14: 14.0 fs
C       -1.830124       -0.106232        0.022017
H       -2.455695        0.564939        0.756983
H       -2.404322        0.159763       -0.863259
H       -1.906310       -1.222555        0.049085
C        1.825684        0.049560        0.021775
H        2.262384       -0.502820        0.927998
H        2.470480       -0.459893       -1.031986
H        1.960835        1.155288        0.093713
N        0.418567       -0.389129       -0.040050
N       -0.409523        0.459672        0.007275
10
  Step 15: 15.0 fs
C       -1.826189       -0.101454        0.025391
H       -2.468440        0.562708        0.724895
H       -2.467639        0.136525       -0.875279
H       -1.877782       -1.215917        0.046327
C        1.831380        0.049654        0.027674
H        2.271924       -0.498359        0.922275
H        2.474122       -0.472965       -1.057803
H        1.961825        1.159923        0.095632
N        0.417451       -0.391849       -0.044772
N       -0.414257        0.459859        0.009555
10
  Step 16: 16.0 fs
C       -1.823637       -0.095831        0.028266
H       -2.468322        0.544719        0.693795
H       -2.517297        0.114709       -0.889901
H       -1.847387       -1.203355        0.052909
C        1.838632        0.048708        0.031933
H        2.278320       -0.487358        0.906886
H        2.458168       -0.469225       -1.051724
H        1.962659        1.157811        0.095806
N        0.417665       -0.396989       -0.049658
N       -0.420867        0.462043        0.011802
10
  Step 17: 17.0 fs
C       -1.822641       -0.089665        0.029752
H       -2.458518        0.515571        0.669492
H       -2.547466        0.093372       -0.901841
H       -1.816342       -1.187056        0.069014
C        1.847002        0.046889        0.034116
H        2.283293       -0.472726        0.886385
H        2.423921       -0.448757       -1.014077
H        1.963434        1.149463        0.094331
N        0.418829       -0.404040       -0.054631
N       -0.428774        0.465905        0.013952
10
  Step 18: 18.0 fs
C       -1.822923       -0.083476        0.029073
H       -2.445133        0.482494        0.659376
H       -2.555216        0.072344       -0.908400
H       -1.785845       -1.170000        0.094203
C        1.855884        0.044426        0.033780
H        2.289549       -0.458547        0.867684
H        2.374169       -0.412907       -0.947877
H        1.964222        1.137017        0.091578
N        0.420399       -0.412325       -0.059584
N       -0.437239        0.470958        0.015941
10
  Step 19: 19.0 fs
C       -1.823947       -0.077869        0.025634
H       -2.435469        0.453420        0.670767
H       -2.540076        0.051976       -0.908650
H       -1.756900       -1.155191        0.127529
C        1.864436        0.041683        0.030951
H        2.299779       -0.448815        0.858025
H        2.315069       -0.366001       -0.862524
H        1.965020        1.123851        0.088195
N        0.421778       -0.421109       -0.064388
N       -0.445477        0.476653        0.017712
10
  Step 20: 20.0 fs
C       -1.825299       -0.073268        0.019383
H       -2.433519        0.432830        0.706479
H       -2.503958        0.033013       -0.903303
H       -1.730294       -1.144596        0.167538
C        1.871369        0.039396        0.027179
H        2.315032       -0.445420        0.861396
H        2.260222       -0.319316       -0.782554
H        1.965700        1.113756        0.085050
N        0.422417       -0.429691       -0.068901
N       -0.452753        0.482459        0.019208
10
  Step 21: 21.0 fs
C       -1.826894       -0.069756        0.011216
H       -2.436776        0.419319        0.760949
H       -2.451621        0.016541       -0.895452
H       -1.706729       -1.138327        0.212150
C        1.874794        0.038929        0.026368
H        2.333825       -0.447219        0.876068
H        2.233146       -0.293902       -0.754718
H        1.966006        1.109709        0.083021
N        0.421897       -0.437467       -0.072993
N       -0.458454        0.487924        0.020384
10
  Step 22: 22.0 fs
C       -1.828669       -0.067289        0.002920
H       -2.438969        0.408319        0.822253
H       -2.391237        0.003844       -0.891902
H       -1.687020       -1.134590        0.258566
C        1.873770        0.040929        0.031373
H        2.353047       -0.451289        0.896026
H        2.247718       -0.302483       -0.808564
H        1.965604        1.113126        0.082742
N        0.419955       -0.443952       -0.076543
N       -0.462123        0.492684        0.021205
10
  Step 23: 23.0 fs
C       -1.830248       -0.065919       -0.003353
H       -2.434898        0.396159        0.877718
H       -2.333220       -0.003965       -0.902700
H       -1.672103       -1.130659        0.303404
C        1.869951        0.043803        0.039508
H        2.369490       -0.454767        0.914583
H        2.287006       -0.329271       -0.906485
H        1.964130        1.123591        0.084422
N        0.416486       -0.448793       -0.079440
N       -0.463474        0.496467        0.021656
10
  Step 24: 24.0 fs
C       -1.831197       -0.065743       -0.005914
H       -2.422343        0.381465        0.917593
H       -2.285559       -0.006567       -0.935361
H       -1.662818       -1.124249        0.343109
C        1.865180        0.046035        0.047355
H        2.380647       -0.455674        0.926426
H        2.330698       -0.356067       -1.002648
H        1.961248        1.138292        0.087700
N        0.411553       -0.451769       -0.081606
N       -0.462379        0.499100        0.021747
10
  Step 25: 25.0 fs
C       -1.831436       -0.066782       -0.004377
H       -2.401768        0.364957        0.936208
H       -2.249478       -0.004771       -0.986491
H       -1.659617       -1.114528        0.374519
C        1.860373        0.047154        0.053303
H        2.385058       -0.453117        0.928443
H        2.368292       -0.374301       -1.074330
H        1.956649        1.152828        0.091908
N        0.405351       -0.452795       -0.083000
N       -0.458852        0.500499        0.021518
10
  Step 26: 26.0 fs
C       -1.831162       -0.068921        0.000376
H       -2.375604        0.348865        0.931901
H       -2.221295       -0.000194       -1.042496
H       -1.662317       -1.102592        0.395378
C        1.855862        0.047258        0.056732
H        2.382478       -0.447388        0.920061
H        2.395210       -0.380979       -1.113014
H        1.950088        1.162940        0.096411
N        0.398176       -0.451921       -0.083617
N       -0.453043        0.500680        0.021027
10
  Step 27: 27.0 fs
C       -1.830453       -0.071966        0.006905
H       -2.348033        0.336734        0.907181
H       -2.197219        0.005479       -1.088402
H       -1.670095       -1.091318        0.404620
C        1.851701        0.046625        0.057293
H        2.373968       -0.439967        0.903290
H        2.409301       -0.375308       -1.116066
H        1.941427        1.165758        0.100767
N        0.390403       -0.449328       -0.083481
N       -0.445246        0.499748        0.020346
10
  Step 28: 28.0 fs
C       -1.829081       -0.075744        0.013655
H       -2.325144        0.333525        0.869276
H       -2.175299        0.010944       -1.113805
H       -1.681678       -1.084743        0.402474
C        1.847800        0.045539        0.054648
H        2.361740       -0.433336        0.882409
H        2.409415       -0.357416       -1.083425
H        1.930679        1.160449        0.104766
N        0.382476       -0.445339       -0.082638
N       -0.435897        0.497910        0.019561
10
  Step 29: 29.0 fs
C       -1.826561       -0.080187        0.019112
H       -2.314378        0.345206        0.829371
H       -2.155151        0.015377       -1.113852
H       -1.695732       -1.086858        0.390329
C        1.843988        0.044212        0.048508
H        2.348650       -0.430459        0.863186
H        2.395231       -0.328190       -1.017272
H        1.918001        1.148394        0.108487
N        0.374913       -0.440410       -0.081161
N       -0.425564        0.495475        0.018774
10
  Step 30: 30.0 fs
C       -1.822405       -0.085299        0.022178
H       -2.321806        0.376513        0.797908
H       -2.137326        0.018426       -1.088655
H       -1.711305       -1.099848        0.370312
C        1.840025        0.042769        0.038945
H        2.336977       -0.433651        0.851029
H        2.368173       -0.289929       -0.923970
H        1.903647        1.132924        0.112396
N        0.368303       -0.435133       -0.079150
N       -0.414926        0.492868        0.018101
10
  Step 31: 31.0 fs
C       -1.816516       -0.090922        0.022877
H       -2.347551        0.426615        0.777091
H       -2.123143        0.020246       -1.043569
H       -1.728034       -1.122719        0.344749
C        1.835437        0.041360        0.027099
H        2.327044       -0.443216        0.848648
H        2.334755       -0.248381       -0.819986
H        1.887899        1.118603        0.117346
N        0.363276       -0.430192       -0.076734
N       -0.404722        0.490592        0.017661
10
  Step 32: 32.0 fs
C       -1.809286       -0.096613        0.022536
H       -2.384545        0.487365        0.760150
H       -2.114930        0.021701       -0.990191
H       -1.745946       -1.151334        0.315869
C        1.828926        0.040534        0.016121
H        2.316994       -0.457079        0.855004
H        2.313462       -0.216054       -0.741705
H        1.871014        1.109752        0.124356
N        0.360459       -0.426299       -0.074072
N       -0.395689        0.489175        0.017560
10
  Step 33: 33.0 fs
C       -1.801221       -0.101874        0.023129
H       -2.422988        0.547431        0.738758
H       -2.116225        0.024514       -0.945947
H       -1.765020       -1.179979        0.285751
C        1.818460        0.041178        0.010331
H        2.304053       -0.471886        0.866294
H        2.332441       -0.208819       -0.735988
H        1.853261        1.108797        0.134111
N        0.360378       -0.424072       -0.071334
N       -0.388474        0.489055        0.017872
10
  Step 34: 34.0 fs
C       -1.792708       -0.106355        0.026266
H       -2.454823        0.597176        0.708482
H       -2.130326        0.030647       -0.927517
H       -1.784894       -1.203299        0.256368
C        1.804427        0.042956        0.009932
H        2.286139       -0.484602        0.878162
H        2.390948       -0.225214       -0.799364
H        1.835022        1.115755        0.146565
N        0.363311       -0.423912       -0.068664
N       -0.383547        0.490462        0.018633
10
  Step 35: 35.0 fs
C       -1.784233       -0.109750        0.032161
H       -2.475040        0.630392        0.669037
H       -2.156531        0.040553       -0.938909
H       -1.804847       -1.217554        0.229612
C        1.789696        0.044620        0.011543
H        2.262554       -0.493201        0.886892
H        2.458134       -0.249481       -0.885541
H        1.816874        1.128223        0.160760
N        0.369194       -0.425902       -0.066159
N       -0.381123        0.493327        0.019834
10
  Step 36: 36.0 fs
C       -1.776531       -0.111681        0.039546
H       -2.481412        0.644150        0.622910
H       -2.188548        0.052301       -0.969003
H       -1.823984       -1.221093        0.207220
C        1.776321        0.045587        0.012945
H        2.234060       -0.496785        0.889951
H        2.511886       -0.270839       -0.962554
H        1.799524        1.141945        0.175047
N        0.377629       -0.429796       -0.063889
N       -0.381125        0.497275        0.021424
10
  Step 37: 37.0 fs
C       -1.770295       -0.111792        0.046708
H       -2.474232        0.638483        0.574290
H       -2.218166        0.063027       -1.002645
H       -1.841438       -1.214350        0.190658
C        1.765199        0.045919        0.013302
H        2.202772       -0.495659        0.886695
H        2.543007       -0.284760       -1.016617
H        1.783634        1.152474        0.187655
N        0.387944       -0.435089       -0.061900
N       -0.383225        0.501693        0.023324
10
  Step 38: 38.0 fs
C       -1.765825       -0.109928        0.052210
H       -2.456662        0.616730        0.528796
H       -2.238940        0.070458       -1.029048
H       -1.856506       -1.199664        0.181033
C        1.756653        0.045923        0.012292
H        2.171861       -0.491261        0.878599
H        2.548537       -0.289611       -1.042461
H        1.769742        1.156559        0.197121
N        0.399287       -0.441138       -0.060233
N       -0.386933        0.505855        0.025435
10
  Step 39: 39.0 fs
C       -1.762896       -0.106272        0.054964
H       -2.435501        0.586357        0.493608
H       -2.247089        0.073284       -1.042819
H       -1.868703       -1.180910        0.179091
C        1.750778        0.045929        0.009682
H        2.145081       -0.485879        0.868927
H        2.528071       -0.284934       -1.038316
H        1.758261        1.152863        0.202514
N        0.410729       -0.447293       -0.058920
N       -0.391680        0.509047        0.027671
10
  Step 40: 40.0 fs
C       -1.760820       -0.101372        0.054113
H       -2.421024        0.558675        0.477013
H       -2.241045        0.071018       -1.042296
H       -1.877690       -1.162775        0.185266
C        1.747574        0.046164        0.005268
H        2.126010       -0.481968        0.861687
H        2.482678       -0.270917       -1.004405
H        1.749476        1.142226        0.203547
N        0.421341       -0.452979       -0.057983
N       -0.396884        0.510659        0.029965
10
  Step 41: 41.0 fs
C       -1.758856       -0.095869        0.049152
H       -2.422778        0.544288        0.485716
H       -2.221031        0.063863       -1.028368
H       -1.883140       -1.149424        0.199662
C        1.746958        0.046685       -0.000946
H        2.117057       -0.481077        0.859892
H        2.415424       -0.248555       -0.943614
H        1.743518        1.127542        0.200623
N        0.430280       -0.457749       -0.057421
N       -0.401985        0.510239        0.032278
10
  Step 42: 42.0 fs
C       -1.756886       -0.089974        0.040340
H       -2.441789        0.545300        0.520044
H       -2.189070        0.052712       -1.004346
H       -1.884605       -1.142899        0.221918
C        1.748552        0.047438       -0.008297
H        2.118764       -0.482973        0.863982
H        2.334081       -0.220860       -0.865312
H        1.740337        1.113231        0.194782
N        0.436856       -0.461294       -0.057203
N       -0.406481        0.507522        0.034601
10
  Step 43: 43.0 fs
C       -1.755507       -0.083470        0.028951
H       -2.468966        0.554345        0.572299
H       -2.149467        0.039232       -0.977112
H       -1.881519       -1.142127        0.250957
C        1.751141        0.048578       -0.014681
H        2.129946       -0.485747        0.871600
H        2.256942       -0.195686       -0.794292
H        1.739729        1.104085        0.187434
N        0.440592       -0.463441       -0.057262
N       -0.409941        0.502428        0.036949
10
  Step 44: 44.0 fs
C       -1.755342       -0.076279        0.017045
H       -2.492600        0.562024        0.630975
H       -2.109036        0.025759       -0.958190
H       -1.873398       -1.143306        0.284740
C        1.752365        0.050842       -0.016079
H        2.148534       -0.486853        0.878776
H        2.215217       -0.187627       -0.776781
H        1.741453        1.103628        0.179792
N        0.441254       -0.464145       -0.057505
N       -0.412045        0.495064        0.039349
10
  Step 45: 45.0 fs
C       -1.756604       -0.068683        0.006881
H       -2.504370        0.562236        0.685360
H       -2.075597        0.014549       -0.961422
H       -1.860166       -1.141736        0.320354
C        1.751113        0.054621       -0.010225
H        2.172464       -0.484346        0.881788
H        2.224037       -0.204660       -0.838077
H        1.745320        1.113071        0.172442
N        0.438852       -0.463497       -0.057824
N       -0.412635        0.485714        0.041840
10
  Step 46: 46.0 fs
C       -1.759318       -0.061084       -0.000055
H       -2.500285        0.552690        0.727409
H       -2.053954        0.006525       -0.993565
H       -1.842330       -1.133713        0.354457
C        1.749457        0.058868       -0.000352
H        2.200057       -0.477470        0.878479
H        2.259270       -0.234290       -0.938867
H        1.751161        1.131112        0.165272
N        0.433624       -0.461732       -0.058118
N       -0.411739        0.474824        0.044458
10
  Step 47: 47.0 fs
C       -1.763588       -0.053798       -0.003776
H       -2.479793        0.533955        0.752071
H       -2.043493        0.001014       -1.046383
H       -1.820954       -1.117711        0.383900
C        1.749332        0.062718        0.009921
H        2.230047       -0.466525        0.868242
H        2.296431       -0.262741       -1.035854
H        1.758784        1.153706        0.157527
N        0.426081       -0.459224       -0.058322
N       -0.409576        0.463001        0.047231
10
  Step 48: 48.0 fs
C       -1.769433       -0.047066       -0.005327
H       -2.445197        0.508851        0.757425
H       -2.040817       -0.003103       -1.102736
H       -1.797504       -1.094723        0.406200
C        1.751415        0.066070        0.018761
H        2.261630       -0.452685        0.851948
H        2.324266       -0.283322       -1.108181
H        1.767876        1.175373        0.148356
N        0.416979       -0.456485       -0.058413
N       -0.406550        0.450995        0.050179
10
  Step 49: 49.0 fs
C       -1.776537       -0.041128       -0.005979
H       -2.401828        0.482496        0.745291
H       -2.042916       -0.006556       -1.147159
H       -1.773621       -1.068170        0.419898
C        1.755704        0.069172        0.025303
H        2.294503       -0.437775        0.831767
H        2.338644       -0.293516       -1.148150
H        1.777964        1.191150        0.137277
N        0.407241       -0.454146       -0.058396
N       -0.403215        0.439670        0.053325
10
  Step 50: 50.0 fs
C       -1.784151       -0.036328       -0.007024
H       -2.358654        0.462765        0.722555
H       -2.048034       -0.009603       -1.169933
H       -1.750945       -1.043200        0.424716
C        1.761955        0.072279        0.029021
H        2.328675       -0.423848        0.810630
H        2.338194       -0.292475       -1.153436
H        1.788465        1.197873        0.124348
N        0.397858       -0.452902       -0.058299
N       -0.400218        0.429931        0.056698
10
  Step 51: 51.0 fs
C       -1.791210       -0.033151       -0.009786
H       -2.327469        0.459701        0.701051
H       -2.055402       -0.012200       -1.166898
H       -1.731048       -1.025420        0.421450
C        1.769883        0.075478        0.029554
H        2.363991       -0.412559        0.791345
H        2.322738       -0.280088       -1.124140
H        1.798775        1.194831        0.110122
N        0.389753       -0.453404       -0.058151
N       -0.398172        0.422612        0.060328
10
  Step 52: 52.0 fs
C       -1.796792       -0.032006       -0.015171
H       -2.317843        0.481309        0.691879
H       -2.064956       -0.014119       -1.138805
H       -1.715492       -1.019089        0.411581
C        1.779238        0.078618        0.026773
H        2.399523       -0.404578        0.775768
H        2.293097       -0.256906       -1.062568
H        1.808304        1.183904        0.095576
N        0.383650       -0.456122       -0.057968
N       -0.397537        0.418331        0.064229
10
  Step 53: 53.0 fs
C       -1.800705       -0.032767       -0.022738
H       -2.329900        0.526484        0.695566
H       -2.077415       -0.015002       -1.091954
H       -1.705903       -1.025409        0.396658
C        1.789751        0.081366        0.020999
H        2.433284       -0.399366        0.764494
H        2.252039       -0.224856       -0.975384
H        1.816486        1.169322        0.082049
N        0.379968       -0.461221       -0.057737
N       -0.398500        0.417362        0.068377
10
  Step 54: 54.0 fs
C       -1.803378       -0.034752       -0.030542
H       -2.354930        0.584412        0.702115
H       -2.094827       -0.014335       -1.039650
H       -1.703895       -1.042124        0.377894
C        1.800843        0.083484        0.013514
H        2.462622       -0.395530        0.757223
H        2.207132       -0.189277       -0.879915
H        1.822766        1.156813        0.071146
N        0.378778       -0.468490       -0.057397
N       -0.400946        0.419568        0.072690
10
  Step 55: 55.0 fs
C       -1.805185       -0.037245       -0.036040
H       -2.382887        0.641875        0.700885
H       -2.120943       -0.011365       -1.001284
H       -1.710747       -1.064650        0.356153
C        1.811138        0.085315        0.007461
H        2.485060       -0.391527        0.753192
H        2.175405       -0.162208       -0.814840
H        1.826645        1.151718        0.064423
N        0.379844       -0.477383       -0.056852
N       -0.404510        0.424430        0.077026
10
  Step 56: 56.0 fs
C       -1.806292       -0.039787       -0.037365
H       -2.406696        0.688675        0.686120
H       -2.159142       -0.005269       -0.993033
H       -1.727029       -1.087893        0.332208
C        1.818836        0.087727        0.006949
H        2.499007       -0.386293        0.751425
H        2.178045       -0.158649       -0.829202
H        1.827777        1.156643        0.062822
N        0.382730       -0.487128       -0.055987
N       -0.408684        0.431165        0.081204
10
  Step 57: 57.0 fs
C       -1.807077       -0.042110       -0.034495
H       -2.422515        0.718660        0.656772
H       -2.207500        0.004234       -1.014141
H       -1.752451       -1.107601        0.306986