10
  Step 0: 0.0 fs
C       -1.803707       -0.067737        0.000069
H       -2.311486        0.330691        0.889261
H       -2.311370        0.329957       -0.889471
H       -1.816435       -1.165804        0.000687
C        1.803674        0.067717        0.000032
H        2.310858       -0.329675        0.890062
H        2.312191       -0.330871       -0.888626
H        1.816218        1.165791       -0.000413
N        0.410954       -0.460077       -0.000172
N       -0.410925        0.460083       -0.000126
10
  Step 1: 1.0 fs
C       -1.794312       -0.057157        0.000257
H       -2.234765        0.329888        0.831218
H       -2.330105        0.339474       -0.868326
H       -1.820375       -1.219442        0.021548
C        1.792528        0.066081       -0.000535
H        2.387135       -0.397880        0.922992
H        2.360231       -0.296191       -0.874137
H        1.782598        1.212969       -0.026139
N        0.406726       -0.453953        0.001191
N       -0.415614        0.448547       -0.001573
10
  Step 2: 2.0 fs
C       -1.784099       -0.049019       -0.001404
H       -2.173558        0.340452        0.800857
H       -2.348002        0.348515       -0.849435
H       -1.824312       -1.256432        0.041258
C        1.782583        0.064954        0.000018
H        2.450281       -0.454862        0.940827
H        2.404278       -0.262633       -0.860518
H        1.750667        1.246813       -0.048313
N        0.402993       -0.448603        0.002490
N       -0.420360        0.437690       -0.003182
10
  Step 3: 3.0 fs
C       -1.772706       -0.044889       -0.006331
H       -2.138696        0.371640        0.819775
H       -2.364230        0.356717       -0.834184
H       -1.828140       -1.268512        0.058896
C        1.774584        0.064716        0.001940
H        2.493097       -0.494688        0.938620
H        2.440373       -0.231084       -0.847742
H        1.721943        1.260333       -0.064082
N        0.400218       -0.444744        0.003666
N       -0.425172        0.428154       -0.005138
10
  Step 4: 4.0 fs
C       -1.761134       -0.044638       -0.013374
H       -2.125309        0.417990        0.877621
H       -2.377949        0.363895       -0.822867
H       -1.831661       -1.253151        0.073720
C        1.768975        0.065550        0.005151
H        2.512012       -0.514480        0.916158
H        2.465163       -0.202393       -0.835857
H        1.697671        1.251549       -0.071319
N        0.398768       -0.442972        0.004671
N       -0.429953        0.420486       -0.007623
10
  Step 5: 5.0 fs
C       -1.750924       -0.047059       -0.020052
H       -2.121853        0.465360        0.946307
H       -2.388257        0.369994       -0.814722
H       -1.834694       -1.212341        0.085200
C        1.765961        0.067421        0.009485
H        2.505643       -0.513093        0.875527
H        2.476465       -0.177436       -0.825705
H        1.678825        1.222496       -0.068547
N        0.398846       -0.443698        0.005481
N       -0.434485        0.415094       -0.010786
10
  Step 6: 6.0 fs
C       -1.743194       -0.050831       -0.024635
H       -2.120615        0.503177        1.004770
H       -2.394262        0.375007       -0.808347
H       -1.837354       -1.153154        0.093332
C        1.765504        0.070036        0.014745
H        2.474645       -0.490922        0.820743
H        2.473618       -0.157046       -0.819222
H        1.666017        1.179336       -0.054957
N        0.400442       -0.447102        0.006082
N       -0.438421        0.412190       -0.014722
10
  Step 7: 7.0 fs
C       -1.738509       -0.054450       -0.026404
H       -2.118155        0.526330        1.042464
H       -2.395383        0.378992       -0.802436
H       -1.840460       -1.090062        0.099122
C        1.767231        0.072826        0.020589
H        2.423054       -0.451000        0.759072
H        2.457476       -0.141830       -0.819236
H        1.659185        1.133309       -0.030527
N        0.403333       -0.453101        0.006470
N       -0.441312        0.411751       -0.019475
10
  Step 8: 8.0 fs
C       -1.736992       -0.055969       -0.025254
H       -2.113311        0.532976        1.055139
H       -2.391674        0.382131       -0.796378
H       -1.845806       -1.045531        0.104920
C        1.770194        0.075220        0.026146
H        2.361864       -0.402024        0.704616
H        2.430010       -0.131940       -0.828649
H        1.657310        1.100108        0.004017
N        0.407133       -0.461364        0.006643
N       -0.442666        0.413509       -0.025052
10
  Step 9: 9.0 fs
C       -1.738468       -0.053635       -0.021310
H       -2.105970        0.523052        1.041885
H       -2.384024        0.384783       -0.790589
H       -1.855337       -1.040672        0.113252
C        1.772579        0.077380        0.029525
H        2.312810       -0.361721        0.682320
H        2.393622       -0.126915       -0.848997
H        1.658725        1.094129        0.047547
N        0.411362       -0.471341        0.006609
N       -0.442020        0.416977       -0.031420
10
  Step 10: 10.0 fs
C       -1.742716       -0.047476       -0.014624
H       -2.096770        0.497960        1.004443
H       -2.374117        0.387481       -0.786531
H       -1.868841       -1.076092        0.123911
C        1.772497        0.080382        0.028591
H        2.298429       -0.348925        0.717297
H        2.350613       -0.125750       -0.879098
H        1.662341        1.118532        0.098592
N        0.415533       -0.482337        0.006384
N       -0.439013        0.421523       -0.038513
10
  Step 11: 11.0 fs
C       -1.749490       -0.039384       -0.005296
H       -2.087510        0.461188        0.948502
H       -2.363983        0.390664       -0.786251
H       -1.883558       -1.131459        0.133687
C        1.770242        0.084576        0.023876
H        2.314781       -0.360840        0.801220
H        2.303243       -0.127147       -0.915167
H        1.668264        1.162503        0.154453
N        0.419196       -0.493605        0.005986
N       -0.433469        0.426458       -0.046233
10
  Step 12: 12.0 fs
C       -1.758262       -0.031644        0.005874
H       -2.082393        0.420013        0.887301
H       -2.355206        0.394236       -0.791382
H       -1.896553       -1.184480        0.139368
C        1.767561        0.089532        0.018138
H        2.340425       -0.380082        0.899371
H        2.253960       -0.129691       -0.952145
H        1.676966        1.209434        0.210847
N        0.422000       -0.504433        0.005442
N       -0.425448        0.431120       -0.054440
10
  Step 13: 13.0 fs
C       -1.768025       -0.026273        0.016832
H       -2.089587        0.387222        0.845360
H       -2.348296        0.397366       -0.802081
H       -1.906034       -1.220671        0.139285
C        1.765610        0.095058        0.013535
H        2.360941       -0.394906        0.984425
H        2.205418       -0.131952       -0.985117
H        1.688474        1.245373        0.262966
N        0.423732       -0.514214        0.004797
N       -0.415249        0.434946       -0.062946
10
  Step 14: 14.0 fs
C       -1.777557       -0.024732        0.024989
H       -2.118560        0.376533        0.849688
H       -2.342767        0.398769       -0.816661
H       -1.911238       -1.232875        0.133096
C        1.764827        0.101118        0.011128
H        2.370628       -0.400813        1.042427
H        2.160334       -0.132577       -1.010261
H        1.702222        1.261946        0.306586
N        0.424312       -0.522486        0.004128
N       -0.403370        0.437529       -0.071527
10
  Step 15: 15.0 fs
C       -1.786424       -0.026993        0.029796
H       -2.168871        0.388548        0.900704
H       -2.337796        0.397293       -0.832272
H       -1.912003       -1.219088        0.121231
C        1.765306        0.107595        0.011342
H        2.368116       -0.396906        1.067335
H        2.121372       -0.130426       -1.025219
H        1.717233        1.255850        0.338612
N        0.423778       -0.528951        0.003528
N       -0.390424        0.438634       -0.079945
10
  Step 16: 16.0 fs
C       -1.795180       -0.031652        0.032973
H       -2.228178        0.410852        0.971026
H       -2.332808        0.392367       -0.845868
H       -1.908642       -1.181755        0.104715
C        1.767013        0.114191        0.014303
H        2.353903       -0.383866        1.057075
H        2.091024       -0.124713       -1.029195
H        1.732242        1.228172        0.357275
N        0.422262       -0.533470        0.003100
N       -0.377073        0.438199       -0.087991
10
  Step 17: 17.0 fs
C       -1.804368       -0.037012        0.036131
H       -2.284005        0.431885        1.034786
H       -2.327711        0.384145       -0.854949
H       -1.902052       -1.128801        0.085264
C        1.769851        0.120374        0.019924
H        2.329736       -0.363476        1.012339
H        2.071441       -0.115105       -1.022890
H        1.745713        1.184695        0.362448
N        0.419975       -0.536054        0.002941
N       -0.363988        0.436314       -0.095498
10
  Step 18: 18.0 fs
C       -1.814094       -0.041246        0.039996
H       -2.328745        0.445216        1.077611
H       -2.322968        0.373523       -0.858158
H       -1.893852       -1.075949        0.065202
C        1.773617        0.125316        0.027756
H        2.299184       -0.339189        0.937578
H        2.064259       -0.101744       -1.008388
H        1.755880        1.137209        0.356301
N        0.417189       -0.536844        0.003139
N       -0.351821        0.433208       -0.102347
10
  Step 19: 19.0 fs
C       -1.824158       -0.042339        0.044777
H       -2.358503        0.447855        1.093226
H       -2.319559        0.362020       -0.855605
H       -1.885992       -1.045630        0.046792
C        1.777804        0.128042        0.036629
H        2.269759       -0.318043        0.844834
H        2.070394       -0.085186       -0.988966
H        1.760936        1.103529        0.343541
N        0.414232       -0.536094        0.003771
N       -0.341186        0.429225       -0.108468
10
  Step 20: 20.0 fs
C       -1.834285       -0.039006        0.050547
H       -2.371542        0.438778        1.079917
H       -2.318853        0.351534       -0.848889
H       -1.879595       -1.054342        0.031281
C        1.781247        0.128251        0.044291
H        2.256543       -0.313946        0.759449
H        2.089831       -0.066229       -0.968768
H        1.759569        1.101041        0.329700
N        0.411492       -0.534161        0.004902
N       -0.332639        0.424813       -0.113831
10
  Step 21: 21.0 fs
C       -1.844230       -0.031997        0.057273
H       -2.367761        0.418593        1.039453
H       -2.322333        0.343920       -0.840732
H       -1.874414       -1.096305        0.019130
C        1.782249        0.127259        0.048164
H        2.279909       -0.345526        0.713988
H        2.121496       -0.045639       -0.952230
H        1.751798        1.133102        0.317499
N        0.409387       -0.531472        0.006581
N       -0.326666        0.420472       -0.118434
10
  Step 22: 22.0 fs
C       -1.853629       -0.023536        0.064544
H       -2.349440        0.390161        0.978442
H       -2.331035        0.340373       -0.833988
H       -1.870012       -1.149976        0.010918
C        1.780500        0.126479        0.048241
H        2.342720       -0.414443        0.713383
H        2.163246       -0.023937       -0.942954
H        1.739340        1.185319        0.306242
N        0.408305       -0.528468        0.008826
N       -0.323670        0.416691       -0.122294
10
  Step 23: 23.0 fs
C       -1.861781       -0.015927        0.071142
H       -2.323400        0.360158        0.912205
H       -2.344955        0.340967       -0.830366
H       -1.866552       -1.195506        0.007246
C        1.777852        0.125709        0.046946
H        2.422352       -0.497655        0.731616
H        2.211774       -0.001390       -0.941670
H        1.724752        1.237983        0.294662
N        0.408540       -0.525528        0.011615
N       -0.323945        0.413860       -0.125428
10
  Step 24: 24.0 fs
C       -1.867487       -0.011161        0.074701
H       -2.303238        0.340535        0.868326
H       -2.362901        0.344751       -0.829718
H       -1.864560       -1.220995        0.008428
C        1.776214        0.124448        0.045899
H        2.496677       -0.572983        0.747534
H        2.262549        0.021770       -0.945181
H        1.710366        1.276162        0.282459
N        0.410241       -0.522900        0.014891
N       -0.327623        0.412212       -0.127846
10
  Step 25: 25.0 fs
C       -1.869573       -0.010632        0.072754
H       -2.303208        0.343339        0.874810
H       -2.382991        0.350362       -0.830388
H       -1.864528       -1.221246        0.014378
C        1.776738        0.122548        0.045459
H        2.553564       -0.628560        0.752224
H        2.310403        0.045005       -0.948418
H        1.697906        1.291608        0.270263
N        0.413383       -0.520675        0.018572
N       -0.334625        0.411790       -0.129555
10
  Step 26: 26.0 fs
C       -1.868318       -0.014174        0.065511
H       -2.321089        0.366971        0.928205
H       -2.403329        0.356633       -0.830254
H       -1.866721       -1.196131        0.024593
C        1.780007        0.120025        0.045453
H        2.587549       -0.659289        0.743295
H        2.350595        0.067420       -0.947087
H        1.688562        1.281545        0.259314
N        0.417761       -0.518772        0.022544
N       -0.344638        0.412448       -0.130569
10
  Step 27: 27.0 fs
C       -1.865152       -0.020274        0.055511
H       -2.341490        0.398437        0.998421
H       -2.422342        0.362795       -0.827446
H       -1.871182       -1.150539        0.038220
C        1.786244        0.116828        0.045634
H        2.596461       -0.663329        0.721029
H        2.379643        0.087892       -0.939108
H        1.683123        1.247671        0.251343
N        0.423025       -0.516984        0.026671
N       -0.357142        0.413893       -0.130916
10
  Step 28: 28.0 fs
C       -1.861218       -0.027067        0.044987
H       -2.352551        0.426767        1.059919
H       -2.438867        0.368433       -0.820686
H       -1.877867       -1.095901        0.054332
C        1.795388        0.112684        0.045816
H        2.580087       -0.640770        0.687133
H        2.395787        0.105336       -0.925098
H        1.681942        1.196361        0.248630
N        0.428724       -0.515039        0.030802
N       -0.371481        0.415758       -0.130631
10
  Step 29: 29.0 fs
C       -1.857068       -0.032501        0.035212
H       -2.349134        0.446266        1.099307
H       -2.452218        0.373388       -0.809602
H       -1.886888       -1.051396        0.072358
C        1.807087        0.107044        0.045819
H        2.540602       -0.594108        0.645061
H        2.399099        0.118971       -0.908262
H        1.684688        1.139517        0.254144
N        0.434354       -0.512656        0.034789
N       -0.386922        0.417654       -0.129755
10
  Step 30: 30.0 fs
C       -1.852883       -0.034649        0.026839
H       -2.330079        0.454692        1.111104
H       -2.462306        0.377724       -0.794942
H       -1.898696       -1.038267        0.092431
C        1.820519        0.099358        0.045281
H        2.485042       -0.530823        0.601919
H        2.391374        0.128560       -0.893938
H        1.690164        1.093521        0.271370
N        0.439406       -0.509589        0.038500
N       -0.402706        0.419217       -0.128345
10
  Step 31: 31.0 fs
C       -1.848688       -0.032981        0.020278
H       -2.296161        0.451765        1.094136
H       -2.469729        0.381771       -0.778651
H       -1.913589       -1.063383        0.114572
C        1.833926        0.090091        0.043309
H        2.430704       -0.468685        0.572872
H        2.375719        0.134468       -0.888522
H        1.696928        1.072312        0.302891
N        0.443418       -0.505651        0.041829
N       -0.418086        0.420148       -0.126474
10
  Step 32: 32.0 fs
C       -1.844521       -0.028915        0.015904
H       -2.249472        0.438634        1.050459
H       -2.475637        0.386046       -0.763552
H       -1.930667       -1.112066        0.136937
C        1.844441        0.081646        0.038326
H        2.406664       -0.436791        0.583207
H        2.355650        0.137370       -0.897214
H        1.704739        1.077570        0.347732
N        0.446008       -0.500723        0.044709
N       -0.432352        0.420232       -0.124235
10
  Step 33: 33.0 fs
C       -1.840423       -0.024555        0.013843
H       -2.193837        0.418235        0.986578
H       -2.481170        0.390890       -0.752500
H       -1.948039       -1.163027        0.156349
C        1.850367        0.076245        0.029806
H        2.427670       -0.449972        0.646114
H        2.333894        0.137733       -0.921432
H        1.714927        1.098740        0.400453
N        0.446892       -0.494752        0.047103
N       -0.444861        0.419339       -0.121737
10
  Step 34: 34.0 fs
C       -1.836302       -0.021724        0.013438
H       -2.136003        0.396770        0.917046
H       -2.486704        0.396077       -0.747298
H       -1.963821       -1.200890        0.170068
C        1.853218        0.073461        0.020173
H        2.471989       -0.488457        0.737070
H        2.311748        0.135590       -0.957917
H        1.729108        1.122242        0.453452
N        0.445886       -0.487753        0.048990
N       -0.455074        0.417430       -0.119113
10
  Step 35: 35.0 fs
C       -1.831847       -0.021985        0.012827
H       -2.086289        0.385502        0.867891
H       -2.491475        0.400750       -0.748003
H       -1.976626       -1.217646        0.176549
C        1.854935        0.072333        0.012080
H        2.514803       -0.529392        0.824389
H        2.289137        0.130709       -0.999667
H        1.748269        1.137603        0.499689
N        0.442947       -0.479824        0.050369
N       -0.462570        0.414564       -0.116520
10
  Step 36: 36.0 fs
C       -1.826824       -0.026521        0.009801
H       -2.054385        0.396790        0.866490
H       -2.493919        0.403798       -0.753036
H       -1.985548       -1.210516        0.175339
C        1.856489        0.072472        0.006776
H        2.544053       -0.561579        0.889841
H        2.265394        0.122917       -1.038411
H        1.772559        1.138819        0.533936
N        0.438193       -0.471153        0.051277
N       -0.467075        0.410908       -0.114127
10
  Step 37: 37.0 fs
C       -1.821685       -0.035117        0.004343
H       -2.040883        0.430347        0.912154
H       -2.492435        0.404388       -0.760086
H       -1.990123       -1.180941        0.166805
C        1.858222        0.073704        0.004576
H        2.555535       -0.581057        0.925341
H        2.240178        0.112315       -1.067127
H        1.801413        1.123984        0.553060
N        0.431897       -0.462036        0.051786
N       -0.468505        0.406749       -0.112104
10
  Step 38: 38.0 fs
C       -1.817270       -0.046073       -0.001430
H       -2.039402        0.472547        0.977257
H       -2.485971        0.402285       -0.766983
H       -1.990522       -1.135173        0.152183
C        1.860202        0.075773        0.005394
H        2.548322       -0.586958        0.927759
H        2.213864        0.099261       -1.081255
H        1.833718        1.094735        0.556002
N        0.424482       -0.452878        0.052017
N       -0.467024        0.402497       -0.110595
10
  Step 39: 39.0 fs
C       -1.814057       -0.057195       -0.005731
H       -2.044387        0.510237        1.036518
H       -2.474279        0.397866       -0.772218
H       -1.988057       -1.086258        0.133974
C        1.862371        0.078189        0.008963
H        2.523004       -0.579938        0.896582
H        2.187549        0.084301       -1.079206
H        1.867969        1.056547        0.544063
N        0.416502       -0.444182        0.052130
N       -0.463066        0.398667       -0.109703
10
  Step 40: 40.0 fs
C       -1.812013       -0.066156       -0.007810
H       -2.052731        0.535693        1.076118
H       -2.458040        0.392040       -0.775309
H       -1.985492       -1.054409        0.115903
C        1.864554        0.080154        0.014815
H        2.481592       -0.562152        0.833746
H        2.162899        0.068056       -1.062527
H        1.902521        1.019612        0.521465
N        0.408620       -0.436515        0.052316
N       -0.457291        0.395838       -0.109502
10
  Step 41: 41.0 fs
C       -1.810841       -0.071063       -0.007476
H       -2.062760        0.545078        1.089991
H       -2.438848        0.386098       -0.776956
H       -1.985733       -1.058661        0.101319
C        1.866312        0.080753        0.022148
H        2.428946       -0.538787        0.745636
H        2.141893        0.051105       -1.035936
H        1.936121        0.998154        0.495059
N        0.401560       -0.430448        0.052780
N       -0.450502        0.394604       -0.110038
10
  Step 42: 42.0 fs
C       -1.810368       -0.071721       -0.004588
H       -2.073472        0.536821        1.076269
H       -2.418992        0.381455       -0.778912
H       -1.988767       -1.100005        0.090829
C        1.866623        0.079779        0.029666
H        2.376327       -0.522095        0.647803
H        2.126481        0.033926       -1.007076
H        1.968365        1.004711        0.471365
N        0.396020       -0.426457        0.053715
N       -0.443497        0.395479       -0.111339
10
  Step 43: 43.0 fs
C       -1.810647       -0.069677        0.000962
H       -2.084326        0.511086        1.036114
H       -2.400832        0.379132       -0.783326
H       -1.991404       -1.159952        0.082724
C        1.863666        0.078974        0.035559
H        2.344873       -0.536282        0.568322
H        2.118049        0.017061       -0.985187
H        1.999190        1.040251        0.452253
N        0.392559       -0.424833        0.055276
N       -0.436946        0.398805       -0.113395
10
  Step 44: 44.0 fs
C       -1.811729       -0.066813        0.008888
H       -2.095571        0.470274        0.974680
H       -2.385936        0.379133       -0.791691
H       -1.990323       -1.217146        0.075261
C        1.856044        0.081003        0.038763
H        2.352725       -0.603349        0.529513
H        2.116837        0.001316       -0.977897
H        2.027900        1.092204        0.435100
N        0.391489       -0.425612        0.057541
N       -0.431302        0.404666       -0.116134
10
  Step 45: 45.0 fs
C       -1.813461       -0.064667        0.018068
H       -2.109397        0.420866        0.904508
H       -2.374513        0.380194       -0.803971
H       -1.983676       -1.257117        0.067562
C        1.845043        0.085631        0.040627
H        2.388847       -0.706989        0.520318
H        2.121640       -0.012253       -0.987402
H        2.053019        1.143972        0.416805
N        0.392798       -0.428537        0.060501
N       -0.426759        0.412854       -0.119408
10
  Step 46: 46.0 fs
C       -1.815298       -0.064649        0.026215
H       -2.131966        0.375560        0.849427
H       -2.365614        0.380210       -0.818542
H       -1.970882       -1.272537        0.059389
C        1.833111        0.090713        0.042566
H        2.430340       -0.811860        0.520108
H        2.129889       -0.022598       -1.008668
H        2.072775        1.182808        0.395865
N        0.396176       -0.433093        0.064085
N       -0.423276        0.422907       -0.122982
10
  Step 47: 47.0 fs
C       -1.816341       -0.067969        0.030539
H       -2.172753        0.349581        0.837852
H       -2.357934        0.377096       -0.832979
H       -1.952090       -1.261268        0.050780
C        1.821960        0.094745        0.044661
H        2.463461       -0.895098        0.518418
H        2.138370       -0.028907       -1.032588
H        2.085595        1.201390        0.372339
N        0.401111       -0.438605        0.068182
N       -0.420648        0.434199       -0.126554
10
  Step 48: 48.0 fs
C       -1.816233       -0.074481        0.030264
H       -2.233779        0.345686        0.874335
H       -2.350574        0.369509       -0.845062
H       -1.927892       -1.225909        0.041823
C        1.812547        0.096953        0.046373
H        2.482594       -0.946512        0.511841
H        2.144218       -0.030773       -1.050885
H        2.090462        1.197158        0.347461
N        0.406984       -0.444329        0.072668
N       -0.418573        0.446033       -0.129801
10
  Step 49: 49.0 fs
C       -1.815701       -0.082422        0.027214
H       -2.303306        0.351931        0.933514
H       -2.343399        0.357120       -0.853366
H       -1.899308       -1.174811        0.032710
C        1.805378        0.096821        0.047121
H        2.485908       -0.962230        0.499741
H        2.145430       -0.028290       -1.058350
H        2.087183        1.171686        0.323375
N        0.413160       -0.449548        0.077409
N       -0.416721        0.457722       -0.132434
10
  Step 50: 50.0 fs
C       -1.815555       -0.089485        0.023377
H       -2.367487        0.356652        0.989294
H       -2.337043        0.340549       -0.857461
H       -1.867863       -1.124199        0.023962
C        1.800650        0.093789        0.046486
H        2.473291       -0.941408        0.482573
H        2.141014       -0.022012       -1.053449
H        2.076702        1.130921        0.303097
N        0.419045       -0.453643        0.082275
N       -0.414800        0.468662       -0.134216
10
  Step 51: 51.0 fs
C       -1.816135       -0.093350        0.019906
H       -2.417566        0.353782        1.026954
H       -2.332749        0.321136       -0.858099
H       -1.835069       -1.096835        0.016360
C        1.798274        0.087147        0.044222
H        2.445885       -0.885489        0.461543
H        2.130971       -0.012818       -1.038130
H        2.061287        1.085621        0.290486
N        0.424109       -0.456130        0.087149
N       -0.412591        0.478362       -0.134975
10
  Step 52: 52.0 fs
C       -1.817490       -0.092628        0.017409
H       -2.449110        0.341029        1.040033
H       -2.332133        0.300620       -0.857233
H       -1.801379       -1.108904        0.010615
C        1.797824        0.076302        0.040237
H        2.407113       -0.799920        0.439273
H        2.116320       -0.001735       -1.017726
H        2.044083        1.049872        0.289697
N        0.427893       -0.456678        0.091931
N       -0.409943        0.486465       -0.134602
10
  Step 53: 53.0 fs
C       -1.819526       -0.088062        0.016239
H       -2.460238        0.318205        1.026645
H       -2.336744        0.280705       -0.857568
H       -1.766775       -1.153594        0.007135
C        1.798384        0.061720        0.034486
H        2.366043       -0.699205        0.421989
H        2.099027        0.010344       -1.000281
H        2.027293        1.034757        0.303441
N        0.430025       -0.455120        0.096545
N       -0.406759        0.492754       -0.133048
10
  Step 54: 54.0 fs
C       -1.821983       -0.081778        0.016511
H       -2.450859        0.286554        0.988035
H       -2.347329        0.262464       -0.861432
H       -1.732470       -1.208603        0.005976
C        1.798190        0.046174        0.026632
H        2.343458       -0.614093        0.423805
H        2.081685        0.022779       -0.994587
H        2.010361        1.040690        0.330712
N        0.430254       -0.451471        0.100949
N       -0.403006        0.497144       -0.130319
10
  Step 55: 55.0 fs
C       -1.824453       -0.075740        0.017914
H       -2.423303        0.248915        0.929447
H       -2.363077        0.245936       -0.869499
H       -1.700651       -1.254070        0.006881
C        1.795014        0.033745        0.015918
H        2.366848       -0.580492        0.464345
H        2.066698        0.035083       -1.006142
H        1.990793        1.058255        0.366528
N        0.428492       -0.445925        0.105147
N       -0.398742        0.499680       -0.126468
10
  Step 56: 56.0 fs
C       -1.826292       -0.071343        0.019389
H       -2.384571        0.210612        0.863329
H       -2.381554        0.230324       -0.880360
H       -1.673392       -1.278493        0.009401
C        1.789244        0.025321        0.003080
H        2.432962       -0.594075        0.540808
H        2.055494        0.046654       -1.034159
H        1.966450        1.076162        0.404253
N        0.424795       -0.438843        0.109167
N       -0.394144        0.500543       -0.121595
10
  Step 57: 57.0 fs
C       -1.826359       -0.069683        0.018860
H       -2.349195        0.180387        0.813185
H       -2.399466        0.214668       -0.891250
H       -1.652198       -1.277097        0.013002