10
  Step 0: 0.0 fs
C       -1.803706       -0.067741        0.000068
H       -2.311482        0.330680        0.889277
H       -2.311375        0.329971       -0.889477
H       -1.816425       -1.165817        0.000657
C        1.803674        0.067713        0.000031
H        2.310873       -0.329670        0.890069
H        2.312192       -0.330880       -0.888620
H        1.816224        1.165788       -0.000448
N        0.410954       -0.460075       -0.000169
N       -0.410928        0.460090       -0.000124
10
  Step 1: 1.0 fs
C       -1.810793       -0.058564       -0.003101
H       -2.314222        0.338911        0.880363
H       -2.286340        0.285297       -0.825589
H       -1.819559       -1.203957       -0.003081
C        1.818165        0.082080       -0.004733
H        2.287863       -0.360469        0.869303
H        2.347005       -0.379418       -0.895064
H        1.794933        1.181095        0.059210
N        0.398457       -0.464730        0.003110
N       -0.405472        0.454546       -0.002626
10
  Step 2: 2.0 fs
C       -1.816403       -0.051554       -0.004000
H       -2.317501        0.347220        0.873849
H       -2.277453        0.254001       -0.791812
H       -1.822659       -1.229483       -0.005592
C        1.832295        0.095671       -0.009948
H        2.267560       -0.391311        0.852828
H        2.376596       -0.419789       -0.895426
H        1.775948        1.194567        0.115581
N        0.386784       -0.469588        0.006259
N       -0.400582        0.449397       -0.005161
10
  Step 3: 3.0 fs
C       -1.819310       -0.048063       -0.000770
H       -2.321760        0.355748        0.871375
H       -2.297864        0.245592       -0.812314
H       -1.825755       -1.235747       -0.005890
C        1.845767        0.107874       -0.015680
H        2.251493       -0.421558        0.842953
H        2.397764       -0.445791       -0.886845
H        1.761252        1.204105        0.165899
N        0.376635       -0.474866        0.009155
N       -0.396797        0.445032       -0.007767
10
  Step 4: 4.0 fs
C       -1.820105       -0.047819        0.005467
H       -2.327228        0.364677        0.873374
H       -2.339839        0.255047       -0.874429
H       -1.828847       -1.221106       -0.003232
C        1.858339        0.118185       -0.021590
H        2.239831       -0.449383        0.839450
H        2.409432       -0.453721       -0.869541
H        1.752410        1.207973        0.207940
N        0.368550       -0.480724        0.011693
N       -0.394530        0.441763       -0.010468
10
  Step 5: 5.0 fs
C       -1.820350       -0.049683        0.012126
H       -2.333694        0.373999        0.878760
H       -2.384889        0.271299       -0.946370
H       -1.831958       -1.188172        0.002748
C        1.869776        0.126201       -0.027040
H        2.231914       -0.472097        0.840292
H        2.412469       -0.442457       -0.846358
H        1.750478        1.205359        0.240050
N        0.362866       -0.487203        0.013786
N       -0.394014        0.439772       -0.013276
10
  Step 6: 6.0 fs
C       -1.821170       -0.052387        0.017521
H       -2.340410        0.383364        0.885179
H       -2.420152        0.286807       -1.005420
H       -1.835232       -1.144379        0.011953
C        1.879761        0.131685       -0.031212
H        2.226990       -0.487078        0.842978
H        2.409783       -0.413709       -0.822785
H        1.755896        1.196738        0.261287
N        0.359704       -0.494188        0.015362
N       -0.395291        0.439063       -0.016191
10
  Step 7: 7.0 fs
C       -1.823110       -0.054504        0.020995
H       -2.346326        0.392215        0.889918
H       -2.439703        0.297854       -1.040534
H       -1.838967       -1.102670        0.023932
C        1.887853        0.134618       -0.033200
H        2.224675       -0.492611        0.845444
H        2.406301       -0.372080       -0.806874
H        1.768410        1.184084        0.271566
N        0.358977       -0.501401        0.016369
N       -0.398217        0.439457       -0.019210
10
  Step 8: 8.0 fs
C       -1.826364       -0.054505        0.022397
H       -2.350523        0.400086        0.890880
H       -2.441490        0.302717       -1.047351
H       -1.843544       -1.079291        0.038221
C        1.893528        0.135153       -0.032148
H        2.225139       -0.488344        0.846441
H        2.408148       -0.324020       -0.808000
H        1.787035        1.170864        0.271735
N        0.360437       -0.508426        0.016768
N       -0.402497        0.440611       -0.022320
10
  Step 9: 9.0 fs
C       -1.830923       -0.051458        0.021735
H       -2.352557        0.406877        0.887230
H       -2.425512        0.300738       -1.025157
H       -1.849256       -1.084750        0.054640
C        1.896436        0.133370       -0.027663
H        2.229152       -0.475429        0.845687
H        2.419377       -0.274421       -0.832102
H        1.810138        1.161587        0.263509
N        0.363738       -0.514769        0.016536
N       -0.407735        0.442087       -0.025500
10
  Step 10: 10.0 fs
C       -1.836611       -0.045792        0.019155
H       -2.352603        0.412974        0.879638
H       -2.393567        0.292260       -0.976505
H       -1.856097       -1.114859        0.073016
C        1.896686        0.129158       -0.020256
H        2.238044       -0.456461        0.844005
H        2.438432       -0.223950       -0.876149
H        1.835693        1.160427        0.249051
N        0.368495       -0.519925        0.015672
N       -0.413486        0.443423       -0.028716
10
  Step 11: 11.0 fs
C       -1.842992       -0.039016        0.015161
H       -2.351333        0.419127        0.870088
H       -2.350339        0.279250       -0.909228
H       -1.863842       -1.154571        0.092644
C        1.894772        0.122543       -0.011234
H        2.253553       -0.435143        0.843334
H        2.458782       -0.170936       -0.928818
H        1.861644        1.168957        0.230258
N        0.374326       -0.523441        0.014198
N       -0.419300        0.444189       -0.031928
10
  Step 12: 12.0 fs
C       -1.849161       -0.032936        0.011074
H       -2.349618        0.426195        0.861259
H       -2.305894        0.266855       -0.841167
H       -1.872296       -1.188610        0.112272
C        1.891237        0.114050       -0.002066
H        2.277395       -0.415399        0.846065
H        2.473206       -0.115053       -0.977026
H        1.886048        1.184709        0.208449
N        0.380879       -0.524963        0.012170
N       -0.424763        0.444036       -0.035085
10
  Step 13: 13.0 fs
C       -1.853633       -0.029294        0.009340
H       -2.348182        0.434875        0.855570
H       -2.277046        0.264691       -0.803222
H       -1.881411       -1.206807        0.130442
C        1.886515        0.104596        0.006143
H        2.310360       -0.399991        0.853400
H        2.476718       -0.058335       -1.010967
H        1.907016        1.202139        0.184734
N        0.387855       -0.524274        0.009669
N       -0.429517        0.442724       -0.038140
10
  Step 14: 14.0 fs
C       -1.855226       -0.029243        0.012056
H       -2.347381        0.445576        0.854305
H       -2.277386        0.281059       -0.821166
H       -1.891190       -1.204491        0.145838
C        1.880980        0.095118        0.012853
H        2.351346       -0.389480        0.863771
H        2.467060       -0.004333       -1.025448
H        1.922681        1.215230        0.160619
N        0.395014       -0.521312        0.006798
N       -0.433278        0.440140       -0.041040
10
  Step 15: 15.0 fs
C       -1.854460       -0.032424        0.018222
H       -2.347131        0.458394        0.857268
H       -2.300855        0.311185       -0.882885
H       -1.901593       -1.181745        0.157624
C        1.875010        0.086332        0.018029
H        2.397100       -0.382508        0.872924
H        2.444187        0.042903       -1.019356
H        1.931336        1.219623        0.138201
N        0.402183       -0.516174        0.003674
N       -0.435836        0.436314       -0.043737
10
  Step 16: 16.0 fs
C       -1.852732       -0.037415        0.025168
H       -2.346825        0.472996        0.862711
H       -2.331355        0.342703       -0.955334
H       -1.912606       -1.143415        0.165600
C        1.868945        0.078699        0.021975
H        2.443012       -0.377055        0.875786
H        2.409967        0.079459       -0.995347
H        1.931644        1.213584        0.120017
N        0.409244       -0.509107        0.000419
N       -0.437078        0.431398       -0.046192
10
  Step 17: 17.0 fs
C       -1.851021       -0.042572        0.031042
H       -2.345408        0.488579        0.867848
H       -2.357566        0.366647       -1.014661
H       -1.924492       -1.099889        0.170344
C        1.862965        0.072463        0.025224
H        2.484402       -0.371578        0.868470
H        2.368246        0.102039       -0.960124
H        1.922815        1.198206        0.108724
N        0.416122       -0.500491       -0.002845
N       -0.436997        0.425656       -0.048382
10
  Step 18: 18.0 fs
C       -1.849756       -0.046193        0.034960
H       -2.341757        0.504105        0.869929
H       -2.374072        0.378716       -1.049312
H       -1.938012       -1.066581        0.173280
C        1.856985        0.067677        0.028535
H        2.517541       -0.365546        0.849262
H        2.324988        0.108503       -0.924941
H        1.904742        1.177085        0.106684
N        0.422780       -0.490819       -0.005990
N       -0.435686        0.419428       -0.050301
10
  Step 19: 19.0 fs
C       -1.849044       -0.046868        0.036531
H       -2.335081        0.518644        0.867164
H       -2.378692        0.377379       -1.054844
H       -1.954195       -1.058169        0.176168
C        1.850677        0.064241        0.032778
H        2.540297       -0.359570        0.818984
H        2.287343        0.098342       -0.904162
H        1.878074        1.155477        0.115509
N        0.429207       -0.480675       -0.008889
N       -0.433310        0.413107       -0.051945
10
  Step 20: 20.0 fs
C       -1.848883       -0.044288        0.035645
H       -2.325185        0.531670        0.859234
H       -2.370906        0.362693       -1.030666
H       -1.973267       -1.078013        0.179782
C        1.843701        0.062029        0.038439
H        2.552555       -0.355391        0.780943
H        2.260463        0.072610       -0.908893
H        1.844250        1.138912        0.135604
N        0.435404       -0.470695       -0.011415
N       -0.430079        0.407104       -0.053308
10
  Step 21: 21.0 fs
C       -1.849255       -0.039506        0.032467
H       -2.312552        0.543188        0.847412
H       -2.351635        0.336104       -0.979582
H       -1.993786       -1.115098        0.183412
C        1.835995        0.061043        0.044975
H        2.556379       -0.355760        0.740535
H        2.243957        0.033729       -0.938535
H        1.805430        1.131246        0.165888
N        0.441366       -0.461535       -0.013446
N       -0.426230        0.401822       -0.054379
10
  Step 22: 22.0 fs
C       -1.849985       -0.034196        0.027543
H       -2.298182        0.553626        0.834268
H       -2.324235        0.301059       -0.909785
H       -2.013305       -1.153291        0.185934
C        1.827729        0.061472        0.050925
H        2.555591       -0.363953        0.704171
H        2.232807       -0.014216       -0.981027
H        1.764385        1.133039        0.203887
N        0.447068       -0.453819       -0.014872
N       -0.422011        0.397621       -0.055150
10
  Step 23: 23.0 fs
C       -1.850448       -0.030022        0.022180
H       -2.283324        0.563617        0.822958
H       -2.296898        0.264417       -0.839413
H       -2.029551       -1.180039        0.186775
C        1.819101        0.063581        0.054817
H        2.553986       -0.382583        0.677125
H        2.221539       -0.065678       -1.021717
H        1.724338        1.141417        0.246208
N        0.452474       -0.448087       -0.015619
N       -0.417684        0.394790       -0.055623
10
  Step 24: 24.0 fs
C       -1.849396       -0.028489        0.018774
H       -2.269087        0.573614        0.816117
H       -2.284547        0.237055       -0.799408
H       -2.040905       -1.188406        0.185999
C        1.810357        0.067524        0.055857
H        2.552779       -0.412001        0.661363
H        2.206709       -0.114865       -1.049936
H        1.688619        1.151647        0.289205
N        0.457501       -0.444734       -0.015656
N       -0.413490        0.393518       -0.055817
10
  Step 25: 25.0 fs
C       -1.845718       -0.030446        0.019392
H       -2.256240        0.583611        0.814863
H       -2.300145        0.227554       -0.815490
H       -2.046384       -1.176402        0.184205
C        1.801898        0.073171        0.054005
H        2.549579       -0.449540        0.655180
H        2.187061       -0.156750       -1.060150
H        1.660237        1.159160        0.329523
N        0.462005       -0.443973       -0.014993
N       -0.409616        0.393872       -0.055767
10
  Step 26: 26.0 fs
C       -1.839926       -0.035330        0.023092
H       -2.245180        0.593096        0.818507
H       -2.337505        0.232607       -0.876115
H       -2.045598       -1.146441        0.182430
C        1.794211        0.080103        0.049719
H        2.539997       -0.490324        0.654854
H        2.163010       -0.187440       -1.051025
H        1.641519        1.160801        0.364393
N        0.465775       -0.445825       -0.013667
N       -0.406159        0.395793       -0.055505
10
  Step 27: 27.0 fs
C       -1.833457       -0.041624        0.027283
H       -2.235965        0.601052        0.824814
H       -2.379141        0.243032       -0.948837
H       -2.039048       -1.105737        0.182021
C        1.787695        0.087723        0.043696
H        2.520246       -0.529016        0.656745
H        2.136296       -0.204297       -1.024787
H        1.633908        1.155305        0.391788
N        0.468535       -0.450122       -0.011733
N       -0.403122        0.399095       -0.055054
10
  Step 28: 28.0 fs
C       -1.827272       -0.047567        0.030146
H       -2.228441        0.606196        0.830814
H       -2.412263        0.252392       -1.009953
H       -2.028482       -1.066804        0.184580
C        1.782521        0.095398        0.036779
H        2.488606       -0.561150        0.658365
H        2.109940       -0.206186       -0.987387
H        1.637889        1.143390        0.410563
N        0.469966       -0.456535       -0.009249
N       -0.400450        0.403485       -0.054440
10
  Step 29: 29.0 fs
C       -1.821695       -0.051394        0.030828
H       -2.222479        0.607455        0.833903
H       -2.430662        0.257453       -1.047785
H       -2.016622       -1.045468        0.191873
C        1.778582        0.102563        0.030003
H        2.445736       -0.583835        0.658602
H        2.088387       -0.193970       -0.949293
H        1.653003        1.127670        0.420604
N        0.469751       -0.464604       -0.006283
N       -0.398047        0.408589       -0.053688
10
  Step 30: 30.0 fs
C       -1.816790       -0.051972        0.029020
H       -2.218188        0.604401        0.832630
H       -2.431930        0.256719       -1.057649
H       -2.005410       -1.052426        0.204952
C        1.775517        0.108782        0.024537
H        2.394460       -0.596042        0.657590
H        2.077073       -0.170631       -0.924735
H        1.677901        1.112404        0.422946
N        0.467621       -0.473775       -0.002914
N       -0.395805        0.413998       -0.052826
10
  Step 31: 31.0 fs
C       -1.812673       -0.049520        0.024779
H       -2.216020        0.597447        0.827028
H       -2.415629        0.249630       -1.038606
H       -1.994196       -1.084177        0.222765
C        1.772854        0.113698        0.021270
H        2.339473       -0.598771        0.656575
H        2.080565       -0.139816       -0.926308
H        1.710528        1.102849        0.419684
N        0.463407       -0.483436        0.000752
N       -0.393615        0.419307       -0.051887
10
  Step 32: 32.0 fs
C       -1.809468       -0.045328        0.018477
H       -2.216699        0.587724        0.818519
H       -2.382999        0.236440       -0.992960
H       -1.980605       -1.126157        0.242305
C        1.770281        0.116963        0.020110
H        2.286789       -0.595005        0.657693
H        2.099537       -0.103246       -0.955707
H        1.748441        1.103587        0.413333
N        0.457072       -0.492952        0.004582
N       -0.391401        0.424149       -0.050907
10
  Step 33: 33.0 fs
C       -1.807042       -0.040886        0.010858
H       -2.220970        0.576696        0.809427
H       -2.338033        0.218632       -0.928113
H       -1.962679       -1.163147        0.260185
C        1.767781        0.118417        0.019887
H        2.242957       -0.589207        0.663621
H        2.129817       -0.060668       -1.001290
H        1.789107        1.116073        0.405656
N        0.448716       -0.501729        0.008424
N       -0.389151        0.428231       -0.049920
10
  Step 34: 34.0 fs
C       -1.804732       -0.037471        0.003391
H       -2.229278        0.565691        0.802191
H       -2.290047        0.200089       -0.861096
H       -1.939757       -1.184851        0.273722
C        1.765559        0.118335        0.019212
H        2.213533       -0.585660        0.676442
H        2.164996       -0.012547       -1.046670
H        1.829855        1.137207        0.396908
N        0.438568       -0.509262        0.012130
N       -0.386930        0.431357       -0.048953
10
  Step 35: 35.0 fs
C       -1.801213       -0.036169       -0.001368
H       -2.241521        0.555510        0.798404
H       -2.255647        0.188108       -0.822104
H       -1.912256       -1.186317        0.281157
C        1.763958        0.117259        0.017242
H        2.201400       -0.586186        0.695941
H        2.199227        0.038803       -1.078904
H        1.867805        1.160609        0.386327
N        0.426976       -0.515191        0.015580
N       -0.384878        0.433452       -0.048026
10
  Step 36: 36.0 fs
C       -1.795283       -0.037618       -0.001033
H       -2.257027        0.546336        0.798188
H       -2.249971        0.189447       -0.838935
H       -1.881236       -1.167067        0.281670
C        1.763410        0.115632        0.013821
H        2.206134       -0.589128        0.718789
H        2.228269        0.089887       -1.090705
H        1.899979        1.179553        0.373256
N        0.414400       -0.519326        0.018687
N       -0.383184        0.434573       -0.047152
10
  Step 37: 37.0 fs
C       -1.787456       -0.041266        0.003727
H       -2.274716        0.537997        0.800324
H       -2.268247        0.201367       -0.903002
H       -1.848116       -1.131230        0.275615
C        1.764333        0.113651        0.009266
H        2.224798       -0.590624        0.739602
H        2.249515        0.136880       -1.079803
H        1.923663        1.189214        0.357892
N        0.401399       -0.521645        0.021408
N       -0.382052        0.434911       -0.046331
10
  Step 38: 38.0 fs
C       -1.779318       -0.045589        0.010142
H       -2.293261        0.530124        0.802716
H       -2.293176        0.215035       -0.981314
H       -1.814588       -1.088555        0.264779
C        1.767010        0.111341        0.004128
H        2.253376       -0.586842        0.753022
H        2.261948        0.176155       -1.048180
H        1.936701        1.187479        0.341460
N        0.388594       -0.522282        0.023730
N       -0.381689        0.434771       -0.045562
10
  Step 39: 39.0 fs
C       -1.772070       -0.048788        0.015989
H       -2.311239        0.522214        0.803058
H       -2.312093        0.223948       -1.048451
H       -1.782409       -1.054568        0.252318
C        1.771473        0.108619       -0.000916
H        2.287882       -0.575408        0.755233
H        2.266414        0.204661       -1.002124
H        1.937711        1.175164        0.326128
N        0.376629       -0.521494        0.025664
N       -0.382297        0.434550       -0.044849
10
  Step 40: 40.0 fs
C       -1.766367       -0.049295        0.020035
H       -2.327395        0.513798        0.799639
H       -2.319057        0.225059       -1.091590
H       -1.752931       -1.045708        0.241619
C        1.777414        0.105304       -0.005028
H        2.324961       -0.555843        0.744622
H        2.266205        0.220473       -0.952857
H        1.926175        1.155799        0.314709
N        0.366120       -0.519618        0.027234
N       -0.384047        0.434687       -0.044201
10
  Step 41: 41.0 fs
C       -1.762560       -0.046647        0.021775
H       -2.340962        0.504700        0.791924
H       -2.311998        0.217469       -1.105571
H       -1.726937       -1.067829        0.233863
C        1.784168        0.101133       -0.007241
H        2.362300       -0.529639        0.722060
H        2.267068        0.223372       -0.915799
H        1.902429        1.134914        0.310119
N        0.357603       -0.517012        0.028470
N       -0.387022        0.435588       -0.043624
10
  Step 42: 42.0 fs
C       -1.760774       -0.041875        0.021175
H       -2.351868        0.495239        0.780749
H       -2.290871        0.201483       -1.089397
H       -1.705309       -1.110550        0.227253
C        1.790911        0.095900       -0.006847
H        2.399008       -0.500209        0.691002
H        2.274782        0.214757       -0.905337
H        1.867560        1.118518        0.314532
N        0.351478       -0.513996        0.029408
N       -0.391186        0.437557       -0.043103
10
  Step 43: 43.0 fs
C       -1.760906       -0.036679        0.018427
H       -2.360702        0.486186        0.768118
H       -2.257276        0.178318       -1.045524
H       -1.689240       -1.156568        0.219337
C        1.797078        0.089726       -0.004053
H        2.435858       -0.472425        0.657089
H        2.290256        0.196493       -0.925546
H        1.823285        1.110536        0.328316
N        0.347973       -0.510816        0.030089
N       -0.396370        0.440735       -0.042599
10
  Step 44: 44.0 fs
C       -1.762606       -0.032554        0.013998
H       -2.368436        0.478486        0.756638
H       -2.215290        0.150290       -0.981689
H       -1.679715       -1.191875        0.208848
C        1.802551        0.083193       -0.000080
H        2.474870       -0.451518        0.626808
H        2.307797        0.170266       -0.967079
H        1.772039        1.110672        0.349411
N        0.347114       -0.507613        0.030564
N       -0.402276        0.445082       -0.042045
10
  Step 45: 45.0 fs
C       -1.765168       -0.030602        0.009071
H       -2.375938        0.472872        0.748648
H       -2.173368        0.121392       -0.915317
H       -1.677189       -1.208402        0.195813
C        1.807433        0.077079        0.003665
H        2.517418       -0.440965        0.604885
H        2.319475        0.138175       -1.014915
H        1.717249        1.114628        0.373870
N        0.348742       -0.504426        0.030880
N       -0.408509        0.450401       -0.041351
10
  Step 46: 46.0 fs
C       -1.767470       -0.031585        0.005956
H       -2.383528        0.469519        0.745266
H       -2.145505        0.097449       -0.876849
H       -1.681546       -1.203241        0.181144
C        1.811893        0.071956        0.006332
H        2.561905       -0.440843        0.592302
H        2.319384        0.102952       -1.056340
H        1.663226        1.116669        0.397213
N        0.352551       -0.501217        0.031079
N       -0.414620        0.456398       -0.040427
10
  Step 47: 47.0 fs
C       -1.768588       -0.035766        0.006841
H       -2.390901        0.468044        0.745994
H       -2.143947        0.083249       -0.894023
H       -1.692118       -1.177784        0.166378
C        1.816148        0.068030        0.007686
H        2.603416       -0.448241        0.586765
H        2.304675        0.067451       -1.083312
H        1.614613        1.112248        0.415648
N        0.358144       -0.497902        0.031185
N       -0.420150        0.462734       -0.039192
10
  Step 48: 48.0 fs
C       -1.768942       -0.042537        0.010969
H       -2.397445        0.467816        0.749190
H       -2.165327        0.078293       -0.958634
H       -1.707667       -1.138176        0.153592
C        1.820368        0.065212        0.007847
H        2.635873       -0.459181        0.584862
H        2.275094        0.034295       -1.092075
H        1.575730        1.099234        0.426650
N        0.365075       -0.494384        0.031216
N       -0.424674        0.469066       -0.037581
10
  Step 49: 49.0 fs
C       -1.769776       -0.050504        0.015556
H       -2.402491        0.468197        0.752702
H       -2.196175        0.079059       -1.037821
H       -1.726496       -1.096545        0.145177
C        1.824583        0.063237        0.007076
H        2.654362       -0.470252        0.583761
H        2.232419        0.005695       -1.082533
H        1.549986        1.078322        0.429145
N        0.372885       -0.490585        0.031188
N       -0.427848        0.475069       -0.035557
10
  Step 50: 50.0 fs
C       -1.771990       -0.057842        0.018437
H       -2.405498        0.468670        0.754452
H       -2.225994        0.082626       -1.105770
H       -1.746821       -1.070349        0.143377
C        1.828632        0.061736        0.005732
H        2.656243       -0.479273        0.581837
H        2.180255       -0.016707       -1.058495
H        1.539503        1.052856        0.423493
N        0.381125       -0.486462        0.031132
N       -0.429460        0.480440       -0.033108
10
  Step 51: 51.0 fs
C       -1.775929       -0.063000        0.018536
H       -2.406287        0.469028        0.753034
H       -2.249249        0.087127       -1.149256
H       -1.767367       -1.074622        0.149490
C        1.832162        0.060300        0.004355
H        2.641474       -0.485540        0.578741
H        2.123981       -0.032097       -1.028634
H        1.544864        1.028499        0.411381
N        0.389367       -0.481997        0.031102
N       -0.429416        0.484896       -0.030245
10
  Step 52: 52.0 fs
C       -1.781566       -0.065751        0.015511
H       -2.405214        0.469496        0.748077
H       -2.263351        0.091359       -1.162769
H       -1.787512       -1.109369        0.162771
C        1.834679        0.058548        0.003658
H        2.612620       -0.489916        0.575325
H        2.070054       -0.040774       -1.006206
H        1.565101        1.012578        0.395594
N        0.397232       -0.477184        0.031176
N       -0.427717        0.488190       -0.026986
10
  Step 53: 53.0 fs
C       -1.788704       -0.067209        0.009449
H       -2.403107        0.470623        0.740259
H       -2.267243        0.094502       -1.144968
H       -1.806727       -1.159284        0.180465
C        1.835649        0.056247        0.004234
H        2.574687       -0.494860        0.573562
H        2.024166       -0.043965       -1.004571
H        1.598216        1.012256        0.379203
N        0.404404       -0.472007        0.031447
N       -0.424441        0.490129       -0.023359
10
  Step 54: 54.0 fs
C       -1.797057       -0.068753        0.000702
H       -2.400947        0.472980        0.730991
H       -2.261063        0.096047       -1.097864
H       -1.824346       -1.206318        0.199250
C        1.834611        0.053480        0.005958
H        2.534443       -0.504198        0.576253
H        1.989293       -0.042870       -1.028212
H        1.642274        1.031142        0.364147
N        0.410663       -0.466436        0.032016
N       -0.419749        0.490592       -0.019393
10
  Step 55: 55.0 fs
C       -1.806201       -0.071344       -0.010018
H       -2.399447        0.476844        0.721926
H       -2.246817        0.096012       -1.028445
H       -1.839777       -1.237830        0.216357
C        1.831267        0.050743        0.007852
H        2.498511       -0.521881        0.585956
H        1.965817       -0.038133       -1.068780
H        1.696020        1.066441        0.350232
N        0.415894       -0.460442        0.032964
N       -0.413892        0.489548       -0.015128
10
  Step 56: 56.0 fs
C       -1.815436       -0.075513       -0.021251
H       -2.398727        0.481997        0.714439
H       -2.230258        0.095770       -0.952924
H       -1.852681       -1.247407        0.229785
C        1.825656        0.048759        0.008810
H        2.470403       -0.549510        0.602856
H        1.953159       -0.030389       -1.111919
H        1.758232        1.109409        0.335638
N        0.420092       -0.454029        0.034341
N       -0.407226        0.487084       -0.010622
10
  Step 57: 57.0 fs
C       -1.823608       -0.081595       -0.030429
H       -2.398297        0.487744        0.709259
H       -2.222888        0.099302       -0.900454
H       -1.862965       -1.233433        0.238204