10
  Step 0: 0.0 fs
C       -1.803712       -0.067739        0.000065
H       -2.311469        0.330684        0.889277
H       -2.311387        0.329972       -0.889449
H       -1.816417       -1.165806        0.000657
C        1.803673        0.067714        0.000032
H        2.310886       -0.329689        0.890044
H        2.312181       -0.330874       -0.888645
H        1.816232        1.165790       -0.000410
N        0.410959       -0.460073       -0.000162
N       -0.410929        0.460085       -0.000131
10
  Step 1: 1.0 fs
C       -1.804631       -0.060106       -0.005056
H       -2.318767        0.338254        0.937529
H       -2.274380        0.303615       -0.897346
H       -1.797047       -1.160881       -0.002162
C        1.785039        0.073962        0.011736
H        2.344200       -0.367283        0.900426
H        2.337577       -0.344887       -0.994816
H        1.819374        1.156731       -0.046292
N        0.413528       -0.453580        0.000704
N       -0.404725        0.447061        0.000856
10
  Step 2: 2.0 fs
C       -1.805391       -0.052776       -0.008788
H       -2.321207        0.342207        0.973635
H       -2.242848        0.281898       -0.910891
H       -1.778853       -1.155734       -0.004297
C        1.768230        0.078833        0.022002
H        2.371637       -0.399181        0.901608
H        2.351214       -0.351491       -1.078577
H        1.822274        1.151978       -0.089139
N        0.416422       -0.447936        0.001659
N       -0.399131        0.434985        0.001859
10
  Step 3: 3.0 fs
C       -1.805765       -0.046091       -0.010301
H       -2.316559        0.341038        0.990200
H       -2.220470        0.267961       -0.933690
H       -1.763008       -1.150227       -0.005154
C        1.754257        0.081799        0.030309
H        2.389057       -0.421259        0.888513
H        2.349427       -0.349259       -1.131713
H        1.824811        1.153327       -0.126629
N        0.419946       -0.443969        0.002777
N       -0.394753        0.424772        0.002893
10
  Step 4: 4.0 fs
C       -1.805639       -0.040281       -0.009562
H       -2.304755        0.334941        0.984362
H       -2.207736        0.262332       -0.964040
H       -1.750583       -1.144463       -0.004378
C        1.743715        0.082922        0.036307
H        2.394580       -0.431396        0.860031
H        2.331618       -0.338703       -1.151753
H        1.826688        1.159465       -0.156621
N        0.424281       -0.442344        0.004123
N       -0.392072        0.417164        0.003971
10
  Step 5: 5.0 fs
C       -1.804997       -0.035467       -0.007273
H       -2.287574        0.325538        0.957511
H       -2.202538        0.263376       -0.995279
H       -1.742457       -1.138791       -0.001937
C        1.736922        0.082625        0.039546
H        2.388781       -0.429552        0.818507
H        2.298371       -0.320873       -1.138513
H        1.827338        1.167200       -0.176939
N        0.429381       -0.443439        0.005754
N       -0.391334        0.412610        0.005107
10
  Step 6: 6.0 fs
C       -1.803748       -0.031793       -0.004627
H       -2.268941        0.316048        0.915947
H       -2.201985        0.268697       -1.019431
H       -1.739245       -1.133742        0.001898
C        1.733863        0.081535        0.039407
H        2.375267       -0.418143        0.769985
H        2.251076       -0.297075       -1.093388
H        1.826062        1.173372       -0.185573
N        0.434938       -0.447278        0.007722
N       -0.392482        0.411194        0.006309
10
  Step 7: 7.0 fs
C       -1.801601       -0.029528       -0.003088
H       -2.255227        0.311498        0.871462
H       -2.203677        0.276163       -1.030481
H       -1.741239       -1.129911        0.006687
C        1.734075        0.080407        0.035191
H        2.361127       -0.402321        0.724389
H        2.192346       -0.269098       -1.020334
H        1.822248        1.176185       -0.181039
N        0.440395       -0.453539        0.010089
N       -0.395163        0.412642        0.007585
10
  Step 8: 8.0 fs
C       -1.798117       -0.029037       -0.004109
H       -2.254160        0.317898        0.838983
H       -2.206115        0.284267       -1.025670
H       -1.748407       -1.127832        0.011998
C        1.736566        0.080094        0.026596
H        2.355791       -0.389090        0.694024
H        2.127660       -0.240325       -0.929818
H        1.815515        1.175722       -0.162697
N        0.445059       -0.461640        0.012927
N       -0.398807        0.416409        0.008947
10
  Step 9: 9.0 fs
C       -1.793079       -0.030513       -0.008375
H       -2.270375        0.338845        0.827842
H       -2.208776        0.292267       -1.005914
H       -1.760418       -1.127876        0.017544
C        1.739935        0.081488        0.014981
H        2.365941       -0.383462        0.687747
H        2.068747       -0.218542       -0.847695
H        1.805806        1.173687       -0.131013
N        0.448239       -0.470861        0.016312
N       -0.402761        0.421796        0.010412
10
  Step 10: 10.0 fs
C       -1.786865       -0.033690       -0.015143
H       -2.300725        0.371840        0.833946
H       -2.212166        0.300286       -0.975746
H       -1.776682       -1.130150        0.023208
C        1.742705        0.085472        0.004463
H        2.389882       -0.384436        0.704336
H        2.034954       -0.218540       -0.821217
H        1.793393        1.172526       -0.087735
N        0.449382       -0.480469        0.020310
N       -0.406402        0.428078        0.011994
10
  Step 11: 11.0 fs
C       -1.780253       -0.037984       -0.022719
H       -2.336402        0.409730        0.844910
H       -2.217857        0.309384       -0.942705
H       -1.796398       -1.134325        0.028972
C        1.744534        0.092064       -0.001554
H        2.419359       -0.386715        0.733883
H        2.037054       -0.249185       -0.878812
H        1.778808        1.174487       -0.035770
N        0.448158       -0.489794        0.024954
N       -0.409237        0.434583        0.013694
10
  Step 12: 12.0 fs
C       -1.773959       -0.042847       -0.029412
H       -2.368550        0.445088        0.849760
H       -2.228058        0.321226       -0.915513
H       -1.818589       -1.139547        0.034781
C        1.746936        0.099316       -0.004913
H        2.445691       -0.385283        0.764867
H        2.062277       -0.295135       -0.983264
H        1.762719        1.181005        0.021277
N        0.444508       -0.498279        0.030220
N       -0.410945        0.440735        0.015500
10
  Step 13: 13.0 fs
C       -1.768519       -0.047866       -0.034126
H       -2.391084        0.472566        0.842595
H       -2.244129        0.336906       -0.900584
H       -1.842132       -1.144583        0.040463
C        1.751238        0.105273       -0.008269
H        2.462948       -0.377367        0.788347
H        2.095428       -0.337057       -1.088987
H        1.745852        1.191601        0.079540
N        0.438645       -0.505480        0.036013
N       -0.411372        0.446075        0.017380
10
  Step 14: 14.0 fs
C       -1.764423       -0.052643       -0.036551
H       -2.400810        0.489159        0.821909
H       -2.264875        0.355538       -0.899079
H       -1.865809       -1.148215        0.045715
C        1.757838        0.109116       -0.012643
H        2.468341       -0.362426        0.798861
H        2.128352       -0.364649       -1.172652
H        1.728933        1.203461        0.135180
N        0.430962       -0.511071        0.042187
N       -0.410497        0.450251        0.019294
10
  Step 15: 15.0 fs
C       -1.762173       -0.056730       -0.037021
H       -2.396886        0.493849        0.789236
H       -2.286383        0.374073       -0.907306
H       -1.888388       -1.149599        0.050135
C        1.766553        0.110823       -0.018164
H        2.461871       -0.341722        0.794298
H        2.157113       -0.373791       -1.224853
H        1.712709        1.212473        0.184490
N        0.421935       -0.514849        0.048578
N       -0.408412        0.453019        0.021200
10
  Step 16: 16.0 fs
C       -1.762146       -0.059734       -0.036230
H       -2.380765        0.487606        0.748679
H       -2.303731        0.388611       -0.919842
H       -1.908729       -1.148487        0.053310
C        1.776897        0.110728       -0.024773
H        2.446086       -0.318076        0.775783
H        2.179551       -0.363124       -1.242041
H        1.697960        1.214912        0.224063
N        0.412068       -0.516742        0.055029
N       -0.405297        0.454246        0.023046
10
  Step 17: 17.0 fs
C       -1.764380       -0.061479       -0.035036
H       -2.356710        0.473911        0.707292
H       -2.312860        0.395906       -0.932292
H       -1.925872       -1.145295        0.054889
C        1.788161        0.109317       -0.032573
H        2.426252       -0.295933        0.748134
H        2.194275       -0.332531       -1.223216
H        1.685461        1.208598        0.251093
N        0.401872       -0.516814        0.061404
N       -0.401412        0.453914        0.024783
10
  Step 18: 18.0 fs
C       -1.768472       -0.062126       -0.034434
H       -2.332163        0.459203        0.675315
H       -2.311374        0.394053       -0.942079
H       -1.939097       -1.140986        0.054669
C        1.799466        0.107129       -0.041901
H        2.410032       -0.281017        0.719850
H        2.200454       -0.282887       -1.169536
H        1.675905        1.193433        0.263786
N        0.391856       -0.515277        0.067587
N       -0.397088        0.452134        0.026358
10
  Step 19: 19.0 fs
C       -1.773693       -0.062103       -0.035403
H       -2.316245        0.451637        0.664238
H       -2.298710        0.382674       -0.948404
H       -1.947953       -1.136845        0.052679
C        1.809874        0.104707       -0.052992
H        2.405446       -0.278962        0.701005
H        2.198425       -0.216781       -1.086452
H        1.669810        1.171385        0.261736
N        0.382531       -0.512490        0.073479
N       -0.392713        0.449151        0.027719
10
  Step 20: 20.0 fs
C       -1.779432       -0.061738       -0.038384
H       -2.314598        0.456288        0.680373
H       -2.276067        0.362928       -0.952084
H       -1.952245       -1.134179        0.049230
C        1.818572        0.102503       -0.064955
H        2.416202       -0.292237        0.697402
H        2.192061       -0.140460       -0.990161
H        1.667375        1.146345        0.246227
N        0.374419       -0.508944        0.078992
N       -0.388717        0.445342        0.028809
10
  Step 21: 21.0 fs
C       -1.785579       -0.060911       -0.042769
H       -2.324976        0.470662        0.718837
H       -2.246329        0.337493       -0.955626
H       -1.951988       -1.133938        0.044891
C        1.824643        0.100907       -0.074448
H        2.438910       -0.318221        0.706225
H        2.194137       -0.065999       -0.919122
H        1.668330        1.123854        0.220518
N        0.368043       -0.505216        0.084023
N       -0.385540        0.441183        0.029571
10
  Step 22: 22.0 fs
C       -1.792303       -0.059279       -0.047168
H       -2.340206        0.487243        0.766736
H       -2.213718        0.310239       -0.963123
H       -1.947360       -1.136334        0.040407
C        1.826909        0.099923       -0.076666
H        2.466006       -0.350933        0.718856
H        2.225289       -0.005458       -0.924989
H        1.671798        1.110636        0.189718
N        0.363897       -0.501889        0.088461
N       -0.383598        0.437192        0.029948
10
  Step 23: 23.0 fs
C       -1.799667       -0.056676       -0.050145
H       -2.353705        0.498988        0.810831
H       -2.182848        0.285323       -0.979217
H       -1.938683       -1.140648        0.036553
C        1.826064        0.098438       -0.071562
H        2.490389       -0.384170        0.726832
H        2.284265        0.042442       -1.003906
H        1.676560        1.112995        0.159521
N        0.362352       -0.499458        0.092225
N       -0.383235        0.433837        0.029901
10
  Step 24: 24.0 fs
C       -1.807588       -0.053159       -0.050787
H       -2.361671        0.501729        0.841545
H       -2.157012        0.265575       -1.006137
H       -1.926459       -1.145426        0.033974
C        1.824517        0.095568       -0.063260
H        2.507323       -0.413128        0.724680
H        2.346964        0.082144       -1.104210
H        1.682098        1.132620        0.133780
N        0.363587       -0.498244        0.095283
N       -0.384653        0.431453        0.029418
10
  Step 25: 25.0 fs
C       -1.815942       -0.048886       -0.048955
H       -2.362858        0.494084        0.853531
H       -2.137210        0.251554       -1.041120
H       -1.911402       -1.148941        0.033078
C        1.823773        0.091551       -0.054535
H        2.514502       -0.434750        0.709986
H        2.396607        0.113727       -1.191212
H        1.689163        1.163717        0.113574
N        0.367563       -0.498324        0.097623
N       -0.387852        0.430172        0.028522
10
  Step 26: 26.0 fs
C       -1.824564       -0.044060       -0.045183
H       -2.358027        0.476879        0.845282
H       -2.122793        0.242056       -1.077018
H       -1.894441       -1.149711        0.034011
C        1.824235        0.087250       -0.046587
H        2.512064       -0.447979        0.683252
H        2.426544        0.136133       -1.250867
H        1.699006        1.196069        0.098647
N        0.374032       -0.499534        0.099243
N       -0.392622        0.429923        0.027262
10
  Step 27: 27.0 fs
C       -1.833135       -0.038996       -0.040410
H       -2.349915        0.453112        0.819324
H       -2.112815        0.235416       -1.105754
H       -1.876668       -1.146895        0.036699
C        1.825733        0.083614       -0.040103
H        2.502727       -0.453958        0.647879
H        2.434800        0.148568       -1.278492
H        1.712467        1.220166        0.088815
N        0.382572       -0.501507        0.100134
N       -0.398572        0.430459        0.025708
10
  Step 28: 28.0 fs
C       -1.841087       -0.034204       -0.035824
H       -2.343781        0.428348        0.783186
H       -2.106756        0.230350       -1.121136
H       -1.859250       -1.140535        0.040929
C        1.827797        0.081478       -0.035743
H        2.491761       -0.456123        0.609904
H        2.421112        0.150580       -1.272990
H        1.729705        1.229798        0.084363
N        0.392632       -0.503753        0.100290
N       -0.405183        0.431437        0.023945
10
  Step 29: 29.0 fs
C       -1.847601       -0.030375       -0.032760
H       -2.347391        0.410513        0.749263
H       -2.104616        0.226166       -1.120135
H       -1.843335       -1.131616        0.046461
C        1.829822        0.081466       -0.034202
H        2.486149       -0.459672        0.577014
H        2.385977        0.141996       -1.235069
H        1.750254        1.222760        0.085995
N        0.403600       -0.505751        0.099709
N       -0.411891        0.432489        0.022072
10
  Step 30: 30.0 fs
C       -1.851839       -0.028155       -0.032288
H       -2.368381        0.407148        0.730225
H       -2.106814        0.222757       -1.103310
H       -1.829973       -1.121957        0.053142
C        1.831320        0.083790       -0.035929
H        2.491479       -0.469178        0.555570
H        2.330737        0.122964       -1.167570
H        1.773171        1.200911        0.094720
N        0.414853       -0.507026        0.098404
N       -0.418144        0.433291        0.020187
10
  Step 31: 31.0 fs
C       -1.853475       -0.027718       -0.034404
H       -2.408177        0.420085        0.729651
H       -2.114124        0.220606       -1.075044
H       -1.820068       -1.113901        0.060952
C        1.832129        0.087955       -0.040601
H        2.508120       -0.485358        0.547231
H        2.258831        0.094120       -1.078303
H        1.797212        1.170347        0.111806
N        0.425797       -0.507192        0.096411
N       -0.423455        0.433598        0.018386
10
  Step 32: 32.0 fs
C       -1.852920       -0.028656       -0.037800
H       -2.459224        0.443693        0.739241
H       -2.127706        0.220809       -1.043354
H       -1.814372       -1.109659        0.069980
C        1.832158        0.092766       -0.046461
H        2.530848       -0.504504        0.548685
H        2.178900        0.056595       -0.987655
H        1.821200        1.140672        0.138566
N        0.435898       -0.505973        0.093808
N       -0.427424        0.433257        0.016746
10
  Step 33: 33.0 fs
C       -1.850892       -0.030425       -0.040712
H       -2.510178        0.469638        0.747358
H       -2.148951        0.224810       -1.018172
H       -1.813481       -1.110470        0.080275
C        1.830807        0.096929       -0.049664
H        2.552447       -0.521283        0.554413
H        2.107545        0.010600       -0.938493
H        1.844500        1.122054        0.175596
N        0.444702       -0.503207        0.090719
N       -0.429771        0.432202        0.015322
10
  Step 34: 34.0 fs
C       -1.848019       -0.032668       -0.041873
H       -2.551494        0.491319        0.746133
H       -2.178512        0.233413       -1.006857
H       -1.817802       -1.116029        0.091627
C        1.827573        0.099913       -0.046310
H        2.567220       -0.531775        0.559390
H        2.058624       -0.046301       -0.973358
H        1.867185        1.119792        0.221284
N        0.451831       -0.498855        0.087327
N       -0.430353        0.430450        0.014153
10
  Step 35: 35.0 fs
C       -1.844835       -0.035188       -0.040956
H       -2.577060        0.504892        0.732430
H       -2.214804        0.245592       -1.009850
H       -1.827470       -1.124601        0.103501
C        1.823508        0.101511       -0.037924
H        2.571981       -0.534454        0.560319
H        2.025689       -0.110326       -1.069523
H        1.889368        1.131688        0.271232
N        0.456990       -0.492995        0.083851
N       -0.429177        0.428090        0.013262
10
  Step 36: 36.0 fs
C       -1.841851       -0.037852       -0.038447
H       -2.583895        0.508887        0.706690
H       -2.253566        0.258410       -1.021031
H       -1.842258       -1.133690        0.115129
C        1.819784        0.101515       -0.028416
H        2.565908       -0.529974        0.555667
H        1.998886       -0.170181       -1.175387
H        1.910495        1.150119        0.319387
N        0.460036       -0.485805        0.080476
N       -0.426397        0.425285        0.012648
10
  Step 37: 37.0 fs
C       -1.839479       -0.040602       -0.035186
H       -2.571823        0.503889        0.672024
H       -2.289292        0.268259       -1.032391
H       -1.861532       -1.140845        0.125659
C        1.816795        0.100193       -0.019941
H        2.550499       -0.520882        0.545606
H        1.975094       -0.217575       -1.261160
H        1.929368        1.166466        0.359917
N        0.461016       -0.477557        0.077316
N       -0.422296        0.422274        0.012285
10
  Step 38: 38.0 fs
C       -1.837858       -0.043530       -0.032057
H       -2.543768        0.492738        0.634122
H       -2.317051        0.272211       -1.037986
H       -1.884280       -1.144308        0.134379
C        1.814439        0.098146       -0.013343
H        2.529611       -0.511513        0.532180
H        1.954306       -0.248724       -1.315217
H        1.944665        1.174388        0.388481
N        0.460138       -0.468614        0.074439
N       -0.417272        0.419360        0.012129
10
  Step 39: 39.0 fs
C       -1.836727       -0.046935       -0.029948
H       -2.506448        0.481086        0.601588
H       -2.333439        0.268529       -1.034942
H       -1.909212       -1.143448        0.140867
C        1.812359        0.096022       -0.009068
H        2.508964       -0.507513        0.519054
H        1.937215       -0.262214       -1.333784
H        1.955380        1.170691        0.402573
N        0.457729       -0.459428        0.071895
N       -0.411817        0.416904        0.012124
10
  Step 40: 40.0 fs
C       -1.835445       -0.051287       -0.029718
H       -2.469732        0.477048        0.585148
H       -2.336891        0.256754       -1.023242
H       -1.934915       -1.138914        0.145114
C        1.810161        0.094279       -0.007488
H        2.494327       -0.514309        0.510280
H        1.924570       -0.257586       -1.316078
H        1.961055        1.155284        0.401468
N        0.454188       -0.450514        0.069733
N       -0.406479        0.415291        0.012206
10
  Step 41: 41.0 fs
C       -1.833385       -0.056944       -0.031875
H       -2.442042        0.487648        0.593281
H       -2.327742        0.237719       -1.005271
H       -1.960013       -1.132530        0.147615
C        1.807683        0.092932       -0.008820
H        2.488347       -0.534307        0.508044
H        1.917100       -0.234874       -1.263087
H        1.961898        1.130992        0.386168
N        0.449948       -0.442427        0.068013
N       -0.401819        0.414908        0.012304
10
  Step 42: 42.0 fs
C       -1.830456       -0.063704       -0.036032
H       -2.424003        0.513029        0.625705
H       -2.308338        0.213602       -0.985720
H       -1.983271       -1.126916        0.149341
C        1.805125        0.091419       -0.012947
H        2.488894       -0.565097        0.511401
H        1.915588       -0.194871       -1.178464
H        1.958868        1.103563        0.359489
N        0.445426       -0.435705        0.066797
N       -0.398348        0.416094        0.012343
10
  Step 43: 43.0 fs
C       -1.827044       -0.070813       -0.040861
H       -2.409108        0.545682        0.672745
H       -2.282974        0.187849       -0.971436
H       -2.003606       -1.124690        0.151550
C        1.802857        0.088839       -0.019134
H        2.490765       -0.600619        0.517302
H        1.921195       -0.140387       -1.072819
H        1.953594        1.081173        0.326012
N        0.440970       -0.430796        0.066140
N       -0.396464        0.419079        0.012246
10
  Step 44: 44.0 fs
C       -1.823514       -0.077472       -0.044705
H       -2.390404        0.576000        0.721729
H       -2.257018        0.164505       -0.970094
H       -2.019991       -1.127389        0.155423
C        1.801053        0.084557       -0.025245
H        2.488837       -0.634008        0.522531
H        1.936565       -0.078570       -0.973740
H        1.947887        1.072224        0.291396
N        0.436823       -0.427983        0.066053
N       -0.396388        0.423934        0.011947
10
  Step 45: 45.0 fs
C       -1.820067       -0.083157       -0.046327
H       -2.364384        0.596781        0.762292
H       -2.234655        0.146669       -0.986332
H       -2.031354       -1.134791        0.161672
C        1.799368        0.078720       -0.027011
H        2.479969       -0.659775        0.524748
H        1.968058       -0.020702       -0.933593
H        1.942844        1.081032        0.260797
N        0.433130       -0.427326        0.066465
N       -0.398134        0.430529        0.011391
10
  Step 46: 46.0 fs
C       -1.816906       -0.087579       -0.045333
H       -2.330885        0.604106        0.787803
H       -2.216883        0.135159       -1.017765
H       -2.036596       -1.145039        0.170316
C        1.797331        0.071652       -0.021745
H        2.463417       -0.674749        0.522869
H        2.021065        0.028499       -0.984285
H        1.938322        1.105095        0.237570
N        0.429932       -0.428650        0.067213
N       -0.401510        0.438544        0.010538
10
  Step 47: 47.0 fs
C       -1.814274       -0.090601       -0.042119
H       -2.292053        0.596897        0.795158
H       -2.202005        0.128732       -1.055583
H       -2.034736       -1.155430        0.180739
C        1.795527        0.063720       -0.012928
H        2.440911       -0.678593        0.517479
H        2.086569        0.072088       -1.083543
H        1.933322        1.136324        0.222899
N        0.427130       -0.431588        0.068105
N       -0.406152        0.447493        0.009365
10
  Step 48: 48.0 fs
C       -1.812300       -0.092257       -0.037494
H       -2.251767        0.576665        0.784650
H       -2.187786        0.125374       -1.089159
H       -2.025087       -1.163368        0.191948
C        1.794733        0.055991       -0.004626
H        2.416505       -0.673864        0.510704
H        2.150995        0.109729       -1.182229
H        1.926812        1.164438        0.216203
N        0.424510       -0.435647        0.068962
N       -0.411572        0.456791        0.007867
10
  Step 49: 49.0 fs
C       -1.810865       -0.092814       -0.032403
H       -2.215626        0.547925        0.760574
H       -2.172959        0.123336       -1.110164
H       -2.007397       -1.167119        0.202878
C        1.795056        0.049740        0.001168
H        2.396142       -0.665712        0.506000
H        2.206250        0.139466       -1.257006
H        1.918255        1.180874        0.216280
N        0.421820       -0.440279        0.069626
N       -0.417224        0.465834        0.006048
10
  Step 50: 50.0 fs
C       -1.809553       -0.092824       -0.027922
H       -2.191009        0.518805        0.732066
H       -2.157438        0.121417       -1.113906
H       -1.981925       -1.166211        0.212663
C        1.796146        0.045975        0.003640
H        2.386027       -0.660235        0.507217
H        2.248601        0.159907       -1.299612
H        1.907691        1.180634        0.222072
N        0.418830       -0.444958        0.069973
N       -0.422574        0.474071        0.003920
10
  Step 51: 51.0 fs
C       -1.807732       -0.093034       -0.025150
H       -2.186097        0.499939        0.711879
H       -2.142164        0.118985       -1.099582
H       -1.949427       -1.161525        0.220807
C        1.797691        0.045104        0.002538
H        2.389538       -0.661005        0.516432
H        2.276251        0.170337       -1.307538
H        1.895574        1.162794        0.232960
N        0.415364       -0.449231        0.069907
N       -0.427155        0.481055        0.001514
10
  Step 52: 52.0 fs
C       -1.804835       -0.093927       -0.024643
H       -2.206285        0.498829        0.709520
H       -2.128974        0.115950       -1.070460
H       -1.911083       -1.155084        0.227276
C        1.799710        0.046746       -0.001997
H        2.405106       -0.666612        0.532222
H        2.288142        0.170484       -1.280460
H        1.882626        1.130657        0.248949
N        0.411308       -0.452753        0.069362
N       -0.430611        0.486478       -0.001117
10
  Step 53: 53.0 fs
C       -1.800747       -0.095215       -0.025679
H       -2.249679        0.513129        0.722926
H       -2.120558        0.112831       -1.034154
H       -1.868364       -1.149505        0.232440
C        1.802506        0.049825       -0.009562
H        2.427235       -0.671876        0.550380
H        2.283652        0.160449       -1.219517
H        1.869707        1.091795        0.270945
N        0.406616       -0.455293        0.068294
N       -0.432715        0.490177       -0.003906
10
  Step 54: 54.0 fs
C       -1.795779       -0.096092       -0.026505
H       -2.307706        0.532773        0.741100
H       -2.120348        0.110781       -1.001998
H       -1.822916       -1.147046        0.236856
C        1.806385        0.052950       -0.019611
H        2.449572       -0.671420        0.566388
H        2.263037        0.140864       -1.128476
H        1.857632        1.056973        0.300896
N        0.401328       -0.456741        0.066685
N       -0.433372        0.492139       -0.006778
10
  Step 55: 55.0 fs
C       -1.790369       -0.095892       -0.025381
H       -2.370013        0.547553        0.753209
H       -2.131436        0.110973       -0.985121
H       -1.776513       -1.148554        0.240896
C        1.811323        0.054919       -0.031114
H        2.467085       -0.662043        0.577144
H        2.229446        0.113374       -1.018513
H        1.846884        1.035882        0.340838
N        0.395567       -0.457098        0.064534
N       -0.432606        0.492492       -0.009673
10
  Step 56: 56.0 fs
C       -1.785005       -0.094322       -0.021476
H       -2.427884        0.550922        0.752969
H       -2.154374        0.113271       -0.987752
H       -1.731071       -1.153102        0.244486
C        1.816487        0.055222       -0.041431
H        2.476791       -0.643288        0.581451
H        2.193944        0.081312       -0.919426
H        1.837551        1.031044        0.390235
N        0.389556       -0.456475        0.061857
N       -0.430542        0.491490       -0.012550
10
  Step 57: 57.0 fs
C       -1.780287       -0.091352       -0.015090
H       -2.475071        0.540009        0.738360
H       -2.185734        0.115574       -1.004318
H       -1.688649       -1.158429        0.247150