10
  Step 0: 0.0 fs
C       -1.803706       -0.067740        0.000067
H       -2.311516        0.330713        0.889250
H       -2.311364        0.329926       -0.889491
H       -1.816438       -1.165804        0.000696
C        1.803677        0.067714        0.000030
H        2.310876       -0.329683        0.890040
H        2.312203       -0.330886       -0.888624
H        1.816221        1.165785       -0.000415
N        0.410956       -0.460073       -0.000174
N       -0.410930        0.460088       -0.000117
10
  Step 1: 1.0 fs
C       -1.820004       -0.070381        0.010059
H       -2.308750        0.381416        0.860952
H       -2.344462        0.325778       -0.922380
H       -1.788578       -1.169783       -0.015795
C        1.802685        0.075731        0.007003
H        2.354763       -0.357538        0.944888
H        2.296787       -0.344690       -0.928578
H        1.827006        1.190446       -0.006183
N        0.407111       -0.461284       -0.008985
N       -0.394918        0.454851       -0.000909
10
  Step 2: 2.0 fs
C       -1.835882       -0.072685        0.018596
H       -2.308832        0.431287        0.838210
H       -2.371497        0.317795       -0.946391
H       -1.763432       -1.172684       -0.029527
C        1.802745        0.083053        0.014159
H        2.389659       -0.378328        0.984272
H        2.278499       -0.354190       -0.958429
H        1.837276        1.209533       -0.010964
N        0.403911       -0.462923       -0.017647
N       -0.379955        0.450191       -0.001684
10
  Step 3: 3.0 fs
C       -1.850954       -0.074466        0.024758
H       -2.313285        0.479123        0.824234
H       -2.388935        0.304071       -0.956487
H       -1.743453       -1.173449       -0.037983
C        1.804395        0.089267        0.021365
H        2.410815       -0.388373        1.000729
H        2.256652       -0.356688       -0.971992
H        1.846461        1.219293       -0.013885
N        0.401938       -0.465405       -0.026030
N       -0.366955        0.446674       -0.002414
10
  Step 4: 4.0 fs
C       -1.864952       -0.075524        0.028259
H       -2.321578        0.522312        0.818771
H       -2.395543        0.284333       -0.951269
H       -1.730580       -1.171565       -0.039073
C        1.807805        0.094108        0.028429
H        2.416307       -0.386243        0.991815
H        2.232325       -0.351130       -0.966996
H        1.854006        1.218415       -0.014257
N        0.401629       -0.469034       -0.034020
N       -0.356615        0.444748       -0.003073
10
  Step 5: 5.0 fs
C       -1.877688       -0.075605        0.029341
H       -2.331729        0.557040        0.819042
H       -2.392068        0.259636       -0.932577
H       -1.726072       -1.167292       -0.031253
C        1.812857        0.097389        0.035198
H        2.406339       -0.372237        0.958709
H        2.207930       -0.337965       -0.944797
H        1.859435        1.208199       -0.011620
N        0.403190       -0.473908       -0.041516
N       -0.349353        0.444630       -0.003636
10
  Step 6: 6.0 fs
C       -1.888929       -0.074515        0.028645
H       -2.341497        0.579613        0.821708
H       -2.381378        0.232389       -0.905892
H       -1.730431       -1.161602       -0.013552
C        1.819104        0.099069        0.041540
H        2.383692       -0.348769        0.906824
H        2.187095       -0.319278       -0.910736
H        1.862369        1.192378       -0.005776
N        0.406569       -0.479866       -0.048423
N       -0.345287        0.446247       -0.004093
10
  Step 7: 7.0 fs
C       -1.898291       -0.072236        0.027143
H       -2.349238        0.587683        0.824148
H       -2.368535        0.206225       -0.880683
H       -1.743471       -1.155838        0.014408
C        1.825640        0.099425        0.047169
H        2.355311       -0.321681        0.848179
H        2.174471       -0.298837       -0.874387
H        1.862506        1.176431        0.003211
N        0.411472       -0.486514       -0.054649
N       -0.344257        0.449251       -0.004447
10
  Step 8: 8.0 fs
C       -1.905252       -0.068956        0.025969
H       -2.354270        0.580911        0.824976
H       -2.359935        0.185228       -0.868936
H       -1.764487       -1.151168        0.052350
C        1.830993        0.099241        0.051346
H        2.333972       -0.301609        0.803729
H        2.175113       -0.281483       -0.848368
H        1.859620        1.166148        0.015113
N        0.417448       -0.493293       -0.060116
N       -0.345903        0.453086       -0.004719
10
  Step 9: 9.0 fs
C       -1.909383       -0.064968        0.025913
H       -2.357008        0.561222        0.824233
H       -2.360219        0.171904       -0.879221
H       -1.792434       -1.148060        0.099212
C        1.833606        0.099515        0.052979
H        2.334223       -0.300665        0.796686
H        2.192664       -0.270876       -0.842940
H        1.853601        1.165449        0.029696
N        0.423981       -0.499586       -0.064762
N       -0.349756        0.457099       -0.004936
10
  Step 10: 10.0 fs
C       -1.910618       -0.060557        0.026863
H       -2.358935        0.532751        0.823426
H       -2.368951        0.165500       -0.909899
H       -1.826030       -1.145951        0.153008
C        1.833221        0.100407        0.051846
H        2.358359       -0.320987        0.831019
H        2.227020       -0.266904       -0.859076
H        1.844517        1.174839        0.046792
N        0.430570       -0.504814       -0.068566
N       -0.355327        0.460642       -0.005122
10
  Step 11: 11.0 fs
C       -1.909226       -0.056030        0.027908
H       -2.362356        0.501327        0.825198
H       -2.381317        0.162898       -0.950035
H       -1.863723       -1.143334        0.210785
C        1.831198        0.101031        0.048927
H        2.393220       -0.352005        0.886818
H        2.273740       -0.265753       -0.887677
H        1.832704        1.191134        0.066197
N        0.436780       -0.508506       -0.071545
N       -0.362170        0.463158       -0.005287
10
  Step 12: 12.0 fs
C       -1.905588       -0.051752        0.028043
H       -2.369564        0.473136        0.832105
H       -2.391720        0.160832       -0.986728
H       -1.903600       -1.138323        0.268803
C        1.829164        0.100553        0.045151
H        2.424292       -0.381859        0.941669
H        2.326002       -0.262673       -0.916059
H        1.818798        1.208632        0.087523
N        0.442263       -0.510334       -0.073744
N       -0.369889        0.464214       -0.005439
10
  Step 13: 13.0 fs
C       -1.900119       -0.048041        0.026754
H       -2.381515        0.452863        0.844533
H       -2.396174        0.157120       -1.010426
H       -1.943396       -1.129364        0.323017
C        1.828210        0.098698        0.040990
H        2.442866       -0.403354        0.981639
H        2.377152       -0.254252       -0.934067
H        1.803668        1.221323        0.110089
N        0.446751       -0.510123       -0.075232
N       -0.378131        0.463522       -0.005576
10
  Step 14: 14.0 fs
C       -1.893309       -0.045047        0.024162
H       -2.396937        0.442683        0.859545
H       -2.392674        0.150719       -1.016070
H       -1.980676       -1.115795        0.369691
C        1.828897        0.095581        0.036700
H        2.445043       -0.413256        1.000041
H        2.421919       -0.238902       -0.935827
H        1.788291        1.224690        0.132953
N        0.450052       -0.507848       -0.076094
N       -0.386587        0.460935       -0.005694
10
  Step 15: 15.0 fs
C       -1.885694       -0.042766        0.020880
H       -2.412758        0.442707        0.871915
H       -2.381001        0.141533       -1.002897
H       -2.013094       -1.098010        0.405890
C        1.831404        0.091472        0.032516
H        2.429840       -0.410776        0.994687
H        2.456818       -0.216600       -0.919531
H        1.773626        1.216651        0.155136
N        0.452034       -0.503621       -0.076431
N       -0.394975        0.456449       -0.005785
10
  Step 16: 16.0 fs
C       -1.877718       -0.041120        0.017780
H       -2.425430        0.452094        0.876391
H       -2.362690        0.130281       -0.974354
H       -2.038705       -1.077417        0.429867
C        1.835605        0.086681        0.028696
H        2.398312       -0.396898        0.966679
H        2.480299       -0.188538       -0.886935
H        1.760499        1.197845        0.175774
N        0.452622       -0.497677       -0.076360
N       -0.403037        0.450187       -0.005843
10
  Step 17: 17.0 fs
C       -1.869604       -0.040027        0.015880
H       -2.432031        0.469782        0.869360
H       -2.341285        0.118483       -0.938515
H       -2.056168       -1.056379        0.441253
C        1.841004        0.081577        0.025460
H        2.353881       -0.374770        0.921188
H        2.493254       -0.156979       -0.843555
H        1.749479        1.171596        0.194298
N        0.451802       -0.490357       -0.076012
N       -0.410548        0.442392       -0.005864
10
  Step 18: 18.0 fs
C       -1.861307       -0.039410        0.016249
H       -2.430760        0.494730        0.849429
H       -2.322160        0.108257       -0.907615
H       -2.064875       -1.038033        0.441081
C        1.846584        0.076695        0.022807
H        2.303476       -0.350874        0.869792
H        2.499737       -0.125116       -0.798981
H        1.740782        1.143475        0.210558
N        0.449635       -0.482099       -0.075531
N       -0.417328        0.433420       -0.005844
10
  Step 19: 19.0 fs
C       -1.852646       -0.039164        0.019692
H       -2.421134        0.526022        0.817484
H       -2.310656        0.101567       -0.894178
H       -2.065028       -1.025959        0.431626
C        1.850756        0.072865        0.020225
H        2.258258       -0.336095        0.832685
H        2.506856       -0.096548       -0.765755
H        1.734272        1.120198        0.224864
N        0.446271       -0.473420       -0.075069
N       -0.423261        0.423729       -0.005780
10
  Step 20: 20.0 fs
C       -1.843602       -0.039116        0.026182
H       -2.404078        0.562963        0.776492
H       -2.308424        0.099003       -0.903547
H       -2.057567       -1.023499        0.415953
C        1.851944        0.070974        0.016847
H        2.229579       -0.342356        0.832049
H        2.521659       -0.074085       -0.754528
H        1.729688        1.107694        0.237836
N        0.441956       -0.464889       -0.074785
N       -0.428312        0.413861       -0.005675
10
  Step 21: 21.0 fs
C       -1.834499       -0.039084        0.034649
H       -2.381793        0.605096        0.730925
H       -2.311679        0.099302       -0.930075
H       -2.043902       -1.032425        0.397149
C        1.849847        0.071168        0.012660
H        2.219250       -0.372056        0.871246
H        2.545694       -0.058661       -0.767391
H        1.727009        1.108834        0.250011
N        0.437024       -0.457108       -0.074827
N       -0.432531        0.404420       -0.005529
10
  Step 22: 22.0 fs
C       -1.825818       -0.039046        0.043553
H       -2.357340        0.651968        0.685824
H       -2.314045        0.100309       -0.962348
H       -2.025554       -1.051615        0.377621
C        1.845604        0.072735        0.008821
H        2.219179       -0.415149        0.930009
H        2.573078       -0.049592       -0.796600
H        1.726671        1.122174        0.261422
N        0.431881       -0.450669       -0.075327
N       -0.436044        0.396030       -0.005344
10
  Step 23: 23.0 fs
C       -1.817984       -0.039184        0.051593
H       -2.333674        0.702378        0.645358
H       -2.310149        0.100104       -0.990018
H       -2.003930       -1.076819        0.358918
C        1.840611        0.074987        0.006406
H        2.221020       -0.459292        0.985160
H        2.594796       -0.045676       -0.830464
H        1.729422        1.142572        0.271457
N        0.426973       -0.446104       -0.076376
N       -0.439005        0.389281       -0.005119
10
  Step 24: 24.0 fs
C       -1.811331       -0.039703        0.057982
H       -2.312642        0.753402        0.611742
H       -2.296936        0.097409       -1.006508
H       -1.980354       -1.102143        0.342085
C        1.835818        0.077639        0.005912
H        2.220126       -0.495956        1.022072
H        2.603477       -0.045872       -0.859113
H        1.735884        1.163524        0.279168
N        0.422719       -0.443809       -0.078024
N       -0.441532        0.384648       -0.004855
10
  Step 25: 25.0 fs
C       -1.806105       -0.040662        0.062391
H       -2.294769        0.800330        0.585363
H       -2.273574        0.091580       -1.008985
H       -1.956162       -1.122054        0.328086
C        1.831709        0.080623        0.007452
H        2.214648       -0.520362        1.033790
H        2.595037       -0.049421       -0.876359
H        1.746200        1.179417        0.283726
N        0.419434       -0.443996       -0.080275
N       -0.443657        0.382443       -0.004547
10
  Step 26: 26.0 fs
C       -1.802422       -0.041940        0.064805
H       -2.279901        0.837813        0.565705
H       -2.241085        0.082509       -0.997866
H       -1.932726       -1.132821        0.318003
C        1.828428        0.083893        0.010968
H        2.204335       -0.530276        1.018255
H        2.568613       -0.055808       -0.879616
H        1.759958        1.186709        0.284735
N        0.417277       -0.446649       -0.083095
N       -0.445285        0.382768       -0.004189
10
  Step 27: 27.0 fs
C       -1.800212       -0.043319        0.065444
H       -2.267966        0.861355        0.552245
H       -2.202197        0.070577       -0.976830
H       -1.911401       -1.133042        0.313041
C        1.825851        0.087332        0.016316
H        2.190048       -0.525403        0.976950
H        2.526193       -0.064750       -0.869649
H        1.776287        1.184403        0.282368
N        0.416218       -0.451521       -0.086411
N       -0.446199        0.385514       -0.003765
10
  Step 28: 28.0 fs
C       -1.799191       -0.044557        0.064770
H       -2.259339        0.868262        0.544763
H       -2.161242        0.056620       -0.953148
H       -1.893439       -1.123667        0.314466
C        1.823574        0.090814        0.023231
H        2.173981       -0.507960        0.915540
H        2.472574       -0.076300       -0.850851
H        1.794000        1.174146        0.277396
N        0.416061       -0.458165       -0.090117
N       -0.446087        0.390383       -0.003251
10
  Step 29: 29.0 fs
C       -1.798893       -0.045447        0.063451
H       -2.254938        0.858120        0.543351
H       -2.123613        0.041768       -0.937089
H       -1.879865       -1.107649        0.323499
C        1.820835        0.094375        0.031184
H        2.160509       -0.484334        0.845963
H        2.415152       -0.090968       -0.831533
H        1.811791        1.160023        0.271090
N        0.416494       -0.465991       -0.094075
N       -0.444609        0.396937       -0.002610
10
  Step 30: 30.0 fs
C       -1.798808       -0.045832        0.062103
H       -2.256174        0.832872        0.548328
H       -2.094203        0.026969       -0.938520
H       -1.871347       -1.089285        0.341106
C        1.816530        0.098442        0.039126
H        2.157230       -0.466976        0.788155
H        2.362384       -0.109609       -0.822558
H        1.828478        1.147829        0.265021
N        0.417162       -0.474339       -0.098112
N       -0.441470        0.404661       -0.001796
10
  Step 31: 31.0 fs
C       -1.798553       -0.045655        0.060828
H       -2.264822        0.796688        0.560154
H       -2.075439        0.012457       -0.960743
H       -1.868038       -1.073003        0.367644
C        1.809636        0.103595        0.045646
H        2.173143       -0.470810        0.763527
H        2.320240       -0.132575       -0.832228
H        1.843186        1.143471        0.260652
N        0.417737       -0.482554       -0.102026
N       -0.436493        0.413028       -0.000754
10
  Step 32: 32.0 fs
C       -1.797936       -0.045043        0.059033
H       -2.282668        0.755257        0.579229
H       -2.066798       -0.002204       -0.997569
H       -1.869468       -1.061678        0.402340
C        1.800126        0.109491        0.050104
H        2.210419       -0.499121        0.776252
H        2.289395       -0.158370       -0.860462
H        1.855364        1.150531        0.258820
N        0.417967       -0.490047       -0.105606
N       -0.429678        0.421553        0.000572
10
  Step 33: 33.0 fs
C       -1.796920       -0.044309        0.055879
H       -2.310635        0.714009        0.605152
H       -2.066227       -0.017551       -1.037357
H       -1.874502       -1.055468        0.442871
C        1.789231        0.114608        0.053005
H        2.260293       -0.538646        0.809575
H        2.266427       -0.183492       -0.898864
H        1.864565        1.168257        0.259393
N        0.417696       -0.496333       -0.108643
N       -0.421206        0.429828        0.002232
10
  Step 34: 34.0 fs
C       -1.795622       -0.043798        0.050889
H       -2.347594        0.676027        0.635623
H       -2.071611       -0.033825       -1.069171
H       -1.881430       -1.052099        0.485436
C        1.778504        0.117564        0.054931
H        2.310951       -0.573566        0.844189
H        2.247270       -0.203826       -0.936327
H        1.870193        1.191430        0.261359
N        0.416858       -0.501049       -0.110956
N       -0.411414        0.437544        0.004268
10
  Step 35: 35.0 fs
C       -1.794332       -0.043715        0.044151
H       -2.389875        0.641510        0.666142
H       -2.081255       -0.050984       -1.085620
H       -1.888213       -1.048380        0.525510
C        1.769125        0.117780        0.056112
H        2.353682       -0.594088        0.868000
H        2.229291       -0.216146       -0.963995
H        1.871476        1.212666        0.263318
N        0.415469       -0.503972       -0.112399
N       -0.400743        0.444498        0.006712
10
  Step 36: 36.0 fs
C       -1.793440       -0.044123        0.036203
H       -2.432206        0.609264        0.691075
H       -2.093933       -0.068825       -1.083436
H       -1.892834       -1.041711        0.558811
C        1.761841        0.115234        0.056592
H        2.383309       -0.595947        0.875207
H        2.211467       -0.218624       -0.976789
H        1.867694        1.225424        0.264054
N        0.413598       -0.505013       -0.112865
N       -0.389680        0.450590        0.009580
10
  Step 37: 37.0 fs
C       -1.793285       -0.045015        0.027803
H       -2.469456        0.578520        0.705492
H       -2.108920       -0.087109       -1.063374
H       -1.893564       -1.030889        0.582059
C        1.757060        0.110155        0.056394
H        2.397214       -0.578375        0.863904
H        2.194056       -0.210823       -0.973282
H        1.858388        1.225613        0.262815
N        0.411349       -0.504215       -0.112294
N       -0.378734        0.455820        0.012872
10
  Step 38: 38.0 fs
C       -1.794028       -0.046344        0.019816
H       -2.497830        0.549648        0.706307
H       -2.126186       -0.105694       -1.030387
H       -1.889133       -1.016391        0.593449
C        1.754893        0.102882        0.055594
H        2.394814       -0.543085        0.834981
H        2.178345       -0.193583       -0.955524
H        1.843492        1.212185        0.259404
N        0.408853       -0.501741       -0.110668
N       -0.368403        0.460275        0.016574
10
  Step 39: 39.0 fs
C       -1.795587       -0.048008        0.013150
H       -2.515374        0.524149        0.692723
H       -2.146620       -0.124681       -0.993534
H       -1.878803       -1.000314        0.592870
C        1.755087        0.093878        0.054295
H        2.378165       -0.494656        0.792629
H        2.166667       -0.168998       -0.929332
H        1.823323        1.187307        0.254188
N        0.406260       -0.497862       -0.108012
N       -0.359162        0.464119        0.020648
10
  Step 40: 40.0 fs
C       -1.797625       -0.049847        0.008615
H       -2.522178        0.504441        0.666349
H       -2.171878       -0.144513       -0.964483
H       -1.862383       -0.986169        0.581976
C        1.756869        0.083836        0.052477
H        2.353724       -0.441838        0.746227
H        2.162326       -0.140220       -0.904266
H        1.798480        1.156183        0.248075
N        0.403745       -0.492938       -0.104393
N       -0.351443        0.467572        0.025041
10
  Step 41: 41.0 fs
C       -1.799675       -0.051677        0.006518
H       -2.520407        0.493611        0.631094
H       -2.202910       -0.165710       -0.952469
H       -1.840198       -0.978400        0.563932
C        1.758830        0.073764        0.049666
H        2.334362       -0.398563        0.712266
H        2.168883       -0.110715       -0.891580
H        1.769686        1.126321        0.242406
N        0.401503       -0.487396       -0.099916
N       -0.345622        0.470887        0.029681
10
  Step 42: 42.0 fs
C       -1.801350       -0.053425        0.006315
H       -2.514093        0.495081        0.592704
H       -2.237856       -0.188163       -0.958879
H       -1.813053       -0.981166        0.542597
C        1.759413        0.064661        0.044890
H        2.335746       -0.379504        0.709603
H        2.188211       -0.082942       -0.898639
H        1.737691        1.105477        0.238641
N        0.399734       -0.481688       -0.094720
N       -0.341998        0.474316        0.034483
10
  Step 43: 43.0 fs
C       -1.802463       -0.055255        0.006833
H       -2.508064        0.511719        0.557396
H       -2.271732       -0.210728       -0.977297
H       -1.782266       -0.996300        0.521144
C        1.758339        0.056716        0.037726
H        2.361725       -0.387848        0.742412
H        2.218533       -0.057788       -0.923819
H        1.703463        1.098359        0.237847
N        0.398586       -0.476242       -0.088973
N       -0.340778        0.478066        0.039350
10
  Step 44: 44.0 fs
C       -1.803041       -0.057516        0.006981
H       -2.505487        0.543963        0.529510
H       -2.298588       -0.231624       -0.998664
H       -1.749802       -1.021686        0.501025
C        1.757000        0.049379        0.028936
H        2.399219       -0.412995        0.794330
H        2.254698       -0.035361       -0.957811
H        1.668638        1.104107        0.240219
N        0.398118       -0.471410       -0.082856
N       -0.342052        0.482251        0.044172
10
  Step 45: 45.0 fs
C       -1.803320       -0.060501        0.006233
H       -2.505762        0.588216        0.509878
H       -2.313757       -0.249083       -1.015674
H       -1.718233       -1.051725        0.482187
C        1.757025        0.042369        0.019538
H        2.432557       -0.442423        0.845207
H        2.290449       -0.015899       -0.989495
H        1.635748        1.116818        0.244979
N        0.398290       -0.467420       -0.076543
N       -0.345773        0.486864        0.048823
10
  Step 46: 46.0 fs
C       -1.803657       -0.064267        0.004585
H       -2.505116        0.637309        0.496443
H       -2.314570       -0.261705       -1.024043
H       -1.690400       -1.079675        0.464106
C        1.759385        0.035923        0.010243
H        2.452127       -0.468033        0.881694
H        2.320534        0.000013       -1.010406
H        1.607859        1.128896        0.250778
N        0.398976       -0.464353       -0.070182
N       -0.351750        0.491763        0.053172
10
  Step 47: 47.0 fs
C       -1.804331       -0.068627        0.002298
H       -2.499288        0.682995        0.486334
H       -2.300393       -0.268601       -1.022526
H       -1.668880       -1.100014        0.446685
C        1.764405        0.030458        0.001518
H        2.453799       -0.485646        0.896987
H        2.341508        0.011646       -1.015953
H        1.587888        1.134241        0.256265
N        0.399979       -0.462147       -0.063887
N       -0.359660        0.496695        0.057090
10
  Step 48: 48.0 fs
C       -1.805402       -0.073259       -0.000271
H       -2.485682        0.718332        0.477383
H       -2.272466       -0.269470       -1.012777
H       -1.655603       -1.109562        0.430559
C        1.771960        0.026315       -0.006256
H        2.436927       -0.493565        0.888628
H        2.351959        0.018343       -1.005382
H        1.578088        1.129487        0.260432
N        0.401056       -0.460624       -0.057749
N       -0.369072        0.501330        0.060460
10
  Step 49: 49.0 fs
C       -1.806685       -0.077760       -0.002689
H       -2.463961        0.738755        0.468523
H       -2.233838       -0.264688       -0.999523
H       -1.651685       -1.107838        0.417091
C        1.781581        0.023666       -0.012727
H        2.403354       -0.491883        0.857416
H        2.352574        0.019647       -0.981621
H        1.579780        1.114256        0.262800
N        0.401947       -0.459533       -0.051838
N       -0.379485        0.505308        0.063185
10
  Step 50: 50.0 fs
C       -1.807784       -0.081690       -0.004461
H       -2.435998        0.742502        0.459792
H       -2.188962       -0.255298       -0.990286
H       -1.657420       -1.096953        0.408196
C        1.792422        0.022565       -0.017603
H        2.357796       -0.482970        0.808153
H        2.346426        0.015355       -0.951636
H        1.593234        1.091033        0.263523
N        0.402397       -0.458588       -0.046216
N       -0.390360        0.508286        0.065200
10
  Step 51: 51.0 fs
C       -1.808207       -0.084661       -0.005158
H       -2.405684        0.730853        0.452287
H       -2.142607       -0.242716       -0.993553
H       -1.672373       -1.081228        0.406041
C        1.803197        0.023074       -0.020877
H        2.308990       -0.472944        0.751770
H        2.338768        0.005475       -0.926021
H        1.617629        1.065023        0.263446
N        0.402184       -0.457501       -0.040939
N       -0.401153        0.509971        0.066476
10
  Step 52: 52.0 fs
C       -1.807511       -0.086475       -0.004762
H       -2.378649        0.708304        0.448081
H       -2.098045       -0.228013       -1.014153
H       -1.695584       -1.066331        0.412552
C        1.812256        0.025450       -0.023179
H        2.270179       -0.473189        0.706853
H        2.335540       -0.009883       -0.916351
H        1.651240        1.043604        0.264063
N        0.401150       -0.456003       -0.036053
N       -0.411354        0.510149        0.067034
10
  Step 53: 53.0 fs
C       -1.805392       -0.087293       -0.003902
H       -2.361685        0.682189        0.449998
H       -2.056262       -0.211499       -1.049380
H       -1.725867       -1.057425        0.428557
C        1.818273        0.029965       -0.025696
H        2.254065       -0.496609        0.692536
H        2.339829       -0.030562       -0.928888
H        1.691983        1.034785        0.267223
N        0.399225       -0.453866       -0.031590
N       -0.420533        0.508703        0.066940
10
  Step 54: 54.0 fs
C       -1.801702       -0.087600       -0.003566
H       -2.360888        0.660379        0.460420
H       -2.017066       -0.193153       -1.090145
H       -1.761980       -1.056801        0.452854
C        1.821287        0.036107       -0.028941
H        2.261889       -0.544908        0.710391
H        2.349518       -0.055960       -0.960120
H        1.738258        1.043663        0.274200
N        0.396450       -0.450917       -0.027565
N       -0.428373        0.505623        0.066305
10
  Step 55: 55.0 fs
C       -1.796579       -0.087885       -0.004456
H       -2.378552        0.647000        0.479055
H       -1.980635       -0.173281       -1.126083
H       -1.802488       -1.062784        0.481915
C        1.822531        0.042566       -0.032328
H        2.283398       -0.605037        0.743023
H        2.358986       -0.084611       -0.999475
H        1.789232        1.068907        0.284585
N        0.392983       -0.447065       -0.023976
N       -0.434698        0.501018        0.065272
10
  Step 56: 56.0 fs
C       -1.790584       -0.088347       -0.006618
H       -2.411329        0.640206        0.501710
H       -1.947922       -0.152703       -1.149384
H       -1.845433       -1.070908        0.510684
C        1.823286        0.048325       -0.035138
H        2.307649       -0.661586        0.772111
H        2.362524       -0.114367       -1.035464
H        1.844139        1.102604        0.296043
N        0.389105       -0.442327       -0.020803
N       -0.439461        0.495118        0.064008
10
  Step 57: 57.0 fs
C       -1.784600       -0.088912       -0.009588
H       -2.451821        0.634675        0.521871
H       -1.920407       -0.132606       -1.156000
H       -1.888248       -1.076331        0.534016