10
  Step 0: 0.0 fs
C       -1.803709       -0.067741        0.000063
H       -2.311492        0.330671        0.889264
H       -2.311380        0.329959       -0.889468
H       -1.816422       -1.165817        0.000677
C        1.803675        0.067713        0.000028
H        2.310885       -0.329699        0.890041
H        2.312158       -0.330870       -0.888648
H        1.816246        1.165789       -0.000400
N        0.410954       -0.460071       -0.000160
N       -0.410925        0.460088       -0.000127
10
  Step 1: 1.0 fs
C       -1.815809       -0.050880        0.004518
H       -2.289453        0.272586        0.785911
H       -2.321036        0.256256       -0.874771
H       -1.850549       -1.160582       -0.019562
C        1.806151        0.068297       -0.014435
H        2.319150       -0.329697        0.930336
H        2.325226       -0.302899       -0.867047
H        1.802904        1.159439        0.025020
N        0.412777       -0.457630        0.004839
N       -0.403510        0.450251        0.005005
10
  Step 2: 2.0 fs
C       -1.825076       -0.036906        0.005769
H       -2.295230        0.236977        0.731791
H       -2.334859        0.191036       -0.872102
H       -1.882159       -1.153396       -0.037864
C        1.808620        0.068882       -0.026942
H        2.322315       -0.326198        0.959605
H        2.342821       -0.279502       -0.854570
H        1.789960        1.155419        0.049181
N        0.414901       -0.455838        0.009675
N       -0.396684        0.441077        0.010093
10
  Step 3: 3.0 fs
C       -1.829058       -0.027764        0.001029
H       -2.354031        0.239553        0.766224
H       -2.355059        0.139947       -0.889031
H       -1.908830       -1.143903       -0.052068
C        1.810940        0.069609       -0.036173
H        2.318069       -0.317857        0.971462
H        2.368226       -0.263712       -0.857519
H        1.777800        1.154902        0.070881
N        0.417628       -0.455318        0.014198
N       -0.391028        0.433209        0.015103
10
  Step 4: 4.0 fs
C       -1.829824       -0.022479       -0.006734
H       -2.442388        0.266220        0.851063
H       -2.379599        0.105496       -0.923922
H       -1.928604       -1.133485       -0.060153
C        1.813167        0.070573       -0.041749
H        2.306331       -0.304949        0.963668
H        2.400286       -0.255253       -0.875091
H        1.766810        1.157736        0.088824
N        0.421190       -0.456565        0.018269
N       -0.386963        0.427172        0.019985
10
  Step 5: 5.0 fs
C       -1.830555       -0.019617       -0.014231
H       -2.527186        0.299905        0.936788
H       -2.402877        0.088345       -0.967361
H       -1.940434       -1.123965       -0.060402
C        1.815600        0.071799       -0.044137
H        2.288821       -0.288998        0.937645
H        2.433387       -0.251112       -0.900115
H        1.757343        1.162795        0.101630
N        0.425663       -0.459855        0.021769
N       -0.384704        0.423274        0.024683
10
  Step 6: 6.0 fs
C       -1.832979       -0.018408       -0.020464
H       -2.592413        0.332375        1.000071
H       -2.418848        0.088082       -1.008332
H       -1.944278       -1.116857       -0.051756
C        1.818501        0.073380       -0.044319
H        2.269200       -0.272833        0.898948
H        2.460637       -0.247745       -0.923829
H        1.749684        1.168571        0.108036
N        0.430924       -0.465191        0.024603
N       -0.384250        0.421569        0.029150
10
  Step 7: 7.0 fs
C       -1.837747       -0.018426       -0.025420
H       -2.632427        0.360155        1.032649
H       -2.423254        0.103387       -1.038414
H       -1.940921       -1.113179       -0.034149
C        1.821820        0.075571       -0.043559
H        2.253349       -0.260743        0.858005
H        2.476761       -0.242581       -0.939684
H        1.744022        1.173680        0.107162
N        0.436658       -0.472310        0.026707
N       -0.385398        0.421852        0.033348
10
  Step 8: 8.0 fs
C       -1.844943       -0.019352       -0.029211
H       -2.645589        0.381601        1.032047
H       -2.414069        0.132030       -1.052634
H       -1.931701       -1.113316       -0.008534
C        1.825167        0.078745       -0.043243
H        2.248640       -0.257928        0.828824
H        2.478965       -0.234359       -0.944331
H        1.740447        1.177223        0.098786
N        0.442420       -0.480737        0.028049
N       -0.387799        0.423710        0.037245
10
  Step 9: 9.0 fs
C       -1.854345       -0.020914       -0.031815
H       -2.631804        0.395809        0.998067
H       -2.391263        0.171048       -1.049159
H       -1.918273       -1.116801        0.023241
C        1.828082        0.083157       -0.044299
H        2.260531       -0.267891        0.822031
H        2.467008       -0.223092       -0.937702
H        1.738965        1.178976        0.083518
N        0.447711       -0.489861        0.028630
N       -0.391019        0.426593        0.040820
10
  Step 10: 10.0 fs
C       -1.865481       -0.022904       -0.033028
H       -2.592141        0.402428        0.932250
H       -2.356719        0.217080       -1.029498
H       -1.902442       -1.122233        0.058572
C        1.830405        0.088651       -0.046480
H        2.288278       -0.289062        0.836300
H        2.443153       -0.210026       -0.922995
H        1.739467        1.179532        0.062751
N        0.452063       -0.499032        0.028481
N       -0.394613        0.429906        0.044067
10
  Step 11: 11.0 fs
C       -1.877570       -0.025247       -0.032554
H       -2.529872        0.402228        0.839326
H       -2.314192        0.266923       -0.999125
H       -1.886099       -1.127602        0.094312
C        1.832232        0.094698       -0.048482
H        2.325381       -0.315132        0.859992
H        2.412151       -0.197661       -0.906673
H        1.741721        1.180209        0.038475
N        0.455090       -0.507613        0.027659
N       -0.398165        0.433066        0.046996
10
  Step 12: 12.0 fs
C       -1.889268       -0.028212       -0.030463
H       -2.454120        0.399523        0.732283
H       -2.268786        0.318173       -0.967494
H       -1.871219       -1.130874        0.127152
C        1.833607        0.100725       -0.048764
H        2.364130       -0.338895        0.880296
H        2.380532       -0.189459       -0.897566
H        1.745383        1.182691        0.012951
N        0.456524       -0.515038        0.026253
N       -0.401319        0.435551        0.049637
10
  Step 13: 13.0 fs
C       -1.898213       -0.032899       -0.028237
H       -2.386733        0.408472        0.641956
H       -2.225441        0.369304       -0.945728
H       -1.859879       -1.130573        0.154236
C        1.834479        0.106305       -0.046234
H        2.398588       -0.354904        0.888531
H        2.354157       -0.188604       -0.903490
H        1.750076        1.188300       -0.011695
N        0.456211       -0.520830        0.024374
N       -0.403792        0.436920        0.052035
10
  Step 14: 14.0 fs
C       -1.901428       -0.041323       -0.028972
H       -2.359426        0.455885        0.613409
H       -2.187026        0.418419       -0.941174
H       -1.854178       -1.126319        0.173843
C        1.834947        0.111103       -0.040673
H        2.425102       -0.360018        0.880561
H        2.334899       -0.196035       -0.926230
H        1.755495        1.197262       -0.033744
N        0.454111       -0.524632        0.022150
N       -0.405389        0.436835        0.054236
10
  Step 15: 15.0 fs
C       -1.898698       -0.053260       -0.033027
H       -2.374345        0.546174        0.650460
H       -2.154105        0.461745       -0.953644
H       -1.855843       -1.119866        0.185612
C        1.835327        0.114838       -0.032784
H        2.442046       -0.353159        0.855917
H        2.320067       -0.209669       -0.959816
H        1.761468        1.208343       -0.051978
N        0.450300       -0.526223        0.019722
N       -0.406000        0.435066        0.056268
10
  Step 16: 16.0 fs
C       -1.892486       -0.065058       -0.037641
H       -2.403666        0.647098        0.712311
H       -2.126173        0.493945       -0.976536
H       -1.865876       -1.115396        0.190323
C        1.835907        0.117365       -0.023839
H        2.449865       -0.335273        0.817495
H        2.305225       -0.225694       -0.994410
H        1.767912        1.219154       -0.065644
N        0.444973       -0.525538        0.017231
N       -0.405628        0.431512        0.058144
10
  Step 17: 17.0 fs
C       -1.884464       -0.073596       -0.041276
H       -2.428938        0.732608        0.769990
H       -2.102882        0.509999       -1.001206
H       -1.884627       -1.117416        0.189360
C        1.836655        0.118814       -0.015311
H        2.451751       -0.309758        0.772064
H        2.286972       -0.240442       -1.021305
H        1.774726        1.226997       -0.074352
N        0.438433       -0.522685        0.014821
N       -0.404422        0.426230        0.059887
10
  Step 18: 18.0 fs
C       -1.875305       -0.077405       -0.043642
H       -2.443200        0.791348        0.811280
H       -2.084384        0.506910       -1.020786
H       -1.911916       -1.127716        0.183888
C        1.837103        0.119588       -0.008723
H        2.454327       -0.282618        0.730455
H        2.263729       -0.251265       -1.035014
H        1.781692        1.229841       -0.077992
N        0.431086       -0.517945        0.012624
N       -0.402661        0.419449        0.061541
10
  Step 19: 19.0 fs
C       -1.865329       -0.076269       -0.044752
H       -2.444274        0.819399        0.831489
H       -2.071106        0.484238       -1.031486
H       -1.946861       -1.143503        0.174276
C        1.836481        0.120217       -0.005414
H        2.466334       -0.261120        0.705119
H        2.235575       -0.256750       -1.033504
H        1.788424        1.227056       -0.076755
N        0.423438       -0.511769        0.010760
N       -0.400712        0.411560        0.063155
10
  Step 20: 20.0 fs
C       -1.854836       -0.070751       -0.044519
H       -2.431623        0.815838        0.828718
H       -2.063568        0.444011       -1.032832
H       -1.987546       -1.158489        0.160356
C        1.834257        0.120971       -0.005958
H        2.492816       -0.249717        0.702995
H        2.203916       -0.256732       -1.018005
H        1.794368        1.219821       -0.071099
N        0.416073       -0.504765        0.009320
N       -0.399013        0.403111        0.064792
10
  Step 21: 21.0 fs
C       -1.844191       -0.061807       -0.042691
H       -2.405488        0.781309        0.802442
H       -2.062295        0.390441       -1.027653
H       -2.031050       -1.165848        0.142202
C        1.830623        0.121638       -0.009675
H        2.529491       -0.247046        0.719973
H        2.171424       -0.252436       -0.993199
H        1.798885        1.210947       -0.061665
N        0.409628       -0.497658        0.008359
N       -0.398042        0.394776        0.066511
10
  Step 22: 22.0 fs
C       -1.833778       -0.050551       -0.038937
H       -2.367115        0.718322        0.753738
H       -2.067775        0.329348       -1.021745
H       -2.073829       -1.160642        0.120657
C        1.826226        0.121803       -0.014979
H        2.565814       -0.248403        0.745120
H        2.141987       -0.246629       -0.967351
H        1.801422        1.203980       -0.049154
N        0.404726       -0.491214        0.007894
N       -0.398260        0.387282        0.068366
10
  Step 23: 23.0 fs
C       -1.823821       -0.038240       -0.033210
H       -2.320423        0.633720        0.687698
H       -2.080204        0.266836       -1.022123
H       -2.112225       -1.141158        0.097468
C        1.821601        0.121269       -0.020090
H        2.591874       -0.249660        0.768038
H        2.120199       -0.243215       -0.951255
H        1.801631        1.201767       -0.034261
N        0.401902       -0.486137        0.007911
N       -0.400031        0.381304        0.070391
10
  Step 24: 24.0 fs
C       -1.813987       -0.026617       -0.026637
H       -2.276699        0.544914        0.620160
H       -2.098770        0.207676       -1.033011
H       -2.142994       -1.109410        0.075059
C        1.817042        0.120107       -0.023665
H        2.601467       -0.248622        0.781895
H        2.109679       -0.245337       -0.953644
H        1.799399        1.205135       -0.017743
N        0.401518       -0.482951        0.008371
N       -0.403534        0.377355        0.072605
10
  Step 25: 25.0 fs
C       -1.802774       -0.018478       -0.022520
H       -2.261616        0.486630        0.586471
H       -2.121104        0.154962       -1.052589
H       -2.163733       -1.070903        0.056087
C        1.812746        0.118463       -0.025296
H        2.592121       -0.244818        0.783483
H        2.111121       -0.252896       -0.975236
H        1.794780        1.212570       -0.000542
N        0.403674       -0.481906        0.009229
N       -0.408700        0.375698        0.075019
10
  Step 26: 26.0 fs
C       -1.788746       -0.015842       -0.024170
H       -2.299855        0.487462        0.617853
H       -2.143780        0.111215       -1.074804
H       -2.173186       -1.034046        0.043005
C        1.808890        0.116426       -0.025518
H        2.564478       -0.239098        0.772662
H        2.122056       -0.262284       -1.007986
H        1.787924        1.221013        0.016178
N        0.408181       -0.482949        0.010442
N       -0.415162        0.376320        0.077625
10
  Step 27: 27.0 fs
C       -1.774043       -0.016538       -0.030038
H       -2.372796        0.527275        0.688179
H       -2.163452        0.078879       -1.093816
H       -2.171448       -1.008695        0.037925
C        1.805495        0.114110       -0.025362
H        2.522368       -0.233581        0.752461
H        2.138567       -0.268751       -1.040603
H        1.779043        1.227154        0.031182
N        0.414604       -0.485754        0.011974
N       -0.422252        0.378973        0.080383
10
  Step 28: 28.0 fs
C       -1.761829       -0.017721       -0.037264
H       -2.448305        0.575727        0.757725
H       -2.177460        0.059873       -1.105590
H       -2.159526       -1.002384        0.042723
C        1.802258        0.111781       -0.025975
H        2.473255       -0.231850        0.729682
H        2.157027       -0.268707       -1.063916
H        1.768420        1.228470        0.043384
N        0.422321       -0.489812        0.013785
N       -0.429106        0.383246        0.083227
10
  Step 29: 29.0 fs
C       -1.753894       -0.018235       -0.044474
H       -2.509204        0.617565        0.807012
H       -2.184132        0.055090       -1.107924
H       -2.138073       -1.016741        0.058534
C        1.798575        0.109834       -0.028482
H        2.427633       -0.238756        0.714548
H        2.174762       -0.260321       -1.072498
H        1.756448        1.223844        0.052047
N        0.430610       -0.494537        0.015828
N       -0.434849        0.388673        0.086078
10
  Step 30: 30.0 fs
C       -1.751013       -0.018124       -0.051080
H       -2.548816        0.646626        0.829441
H       -2.183000        0.064210       -1.100504
H       -2.106731       -1.046853        0.084949
C        1.793885        0.108619       -0.033654
H        2.394947       -0.258505        0.716586
H        2.190222       -0.243449       -1.064701
H        1.743633        1.213784        0.056984
N        0.438721       -0.499355        0.018039
N       -0.438733        0.394788        0.088849
10
  Step 31: 31.0 fs
C       -1.753361       -0.017937       -0.056578
H       -2.564837        0.660256        0.823521
H       -2.174933        0.085752       -1.085092
H       -2.064961       -1.083753        0.119713
C        1.788184        0.108125       -0.041331
H        2.377507       -0.291098        0.737301
H        2.203059       -0.219446       -1.042444
H        1.730534        1.200409        0.058635
N        0.445949       -0.503770        0.020335
N       -0.440222        0.401174        0.091448
10
  Step 32: 32.0 fs
C       -1.760611       -0.018257       -0.060284
H       -2.556709        0.657128        0.789780
H       -2.162103        0.117337       -1.065851
H       -2.013336       -1.117955        0.159061
C        1.782030        0.107906       -0.050253
H        2.369885       -0.331106        0.768383
H        2.214416       -0.191136       -1.011434
H        1.717675        1.187093        0.058025
N        0.451668       -0.507386        0.022613
N       -0.439019        0.407466        0.093779
10
  Step 33: 33.0 fs
C       -1.772001       -0.019491       -0.061397
H       -2.525165        0.636851        0.730313
H       -2.147530        0.156045       -1.049055
H       -1.954054       -1.141799        0.198492
C        1.776009        0.107407       -0.058635
H        2.364675       -0.370901        0.798296
H        2.227145       -0.162560       -0.980868
H        1.705476        1.177522        0.056609
N        0.455389       -0.509919        0.024760
N       -0.435067        0.413372        0.095752
10
  Step 34: 34.0 fs
C       -1.786398       -0.021874       -0.059339
H       -2.473284        0.600835        0.650007
H       -2.133844        0.198638       -1.041188
H       -1.890737       -1.150627        0.233624
C        1.770401        0.106279       -0.064815
H        2.356747       -0.404046        0.818244
H        2.245219       -0.138051       -0.961348
H        1.694266        1.174292        0.055876
N        0.456787       -0.511191        0.026646
N       -0.428520        0.418670        0.097296
10
  Step 35: 35.0 fs
C       -1.802216       -0.025709       -0.054447
H       -2.410205        0.555651        0.560443
H       -2.121846        0.241248       -1.045471
H       -1.827842       -1.143129        0.260934
C        1.765343        0.104414       -0.067793
H        2.343793       -0.426389        0.823507
H        2.271090       -0.120440       -0.959454
H        1.684373        1.177698        0.056949
N        0.455707       -0.511120        0.028145
N       -0.419697        0.423225        0.098354
10
  Step 36: 36.0 fs
C       -1.816895       -0.032016       -0.048791
H       -2.358526        0.520752        0.486966
H       -2.110303        0.279099       -1.059938
H       -1.770015       -1.121274        0.278331
C        1.761127        0.101848       -0.067545
H        2.325719       -0.436026        0.812941
H        2.302825       -0.109811       -0.973322
H        1.676199        1.185591        0.060313
N        0.452169       -0.509732        0.029133
N       -0.409073        0.427017        0.098902
10
  Step 37: 37.0 fs
C       -1.827009       -0.042676       -0.045818
H       -2.352712        0.529588        0.465541
H       -2.097373        0.307158       -1.079004
H       -1.721445       -1.090480        0.285594
C        1.758208        0.098737       -0.064826
H        2.304203       -0.433149        0.788455
H        2.334501       -0.104370       -0.994569
H        1.670224        1.194281        0.065849
N        0.446364       -0.507167        0.029505
N       -0.397244        0.430157        0.098937
10
  Step 38: 38.0 fs
C       -1.831757       -0.056984       -0.046586
H       -2.397699        0.587933        0.500899
H       -2.081979        0.321327       -1.096524
H       -1.685026       -1.060167        0.284571
C        1.756908        0.095400       -0.060739
H        2.282898       -0.420348        0.755354
H        2.359445       -0.102031       -1.013992
H        1.666918        1.199960        0.073060
N        0.438649       -0.503664        0.029177
N       -0.384860        0.432878        0.098473
10
  Step 39: 39.0 fs
C       -1.833596       -0.070638       -0.049129
H       -2.461607        0.660511        0.560862
H       -2.064154        0.319143       -1.107545
H       -1.661713       -1.043069        0.279002
C        1.757184        0.092327       -0.056513
H        2.267679       -0.403030        0.722771
H        2.372668       -0.101251       -1.025061
H        1.666617        1.199867        0.081343
N        0.429545       -0.499560        0.028093
N       -0.372610        0.435516        0.097541
10
  Step 40: 40.0 fs
C       -1.834400       -0.080278       -0.051948
H       -2.520110        0.719263        0.620338
H       -2.044967        0.300091       -1.109095
H       -1.651081       -1.049499        0.272757
C        1.758618        0.090082       -0.053359
H        2.265856       -0.388709        0.702438
H        2.371618       -0.101176       -1.024675
H        1.669427        1.193010        0.090169
N        0.419700       -0.495279        0.026227
N       -0.361236        0.438485        0.096200
10
  Step 41: 41.0 fs
C       -1.834807       -0.084861       -0.054199
H       -2.562670        0.752350        0.667502
H       -2.026310        0.265730       -1.101311
H       -1.652918       -1.080037        0.267088
C        1.760746        0.088970       -0.052021
H        2.282399       -0.383313        0.702954
H        2.356122       -0.101562       -1.012941
H        1.675175        1.180496        0.099226
N        0.409840       -0.491291        0.023590
N       -0.351485        0.442208        0.094541
10
  Step 42: 42.0 fs
C       -1.834815       -0.085026       -0.055017
H       -2.585350        0.756095        0.696972
H       -2.010588        0.219502       -1.088144
H       -1.667729       -1.124751        0.260198
C        1.763441        0.088694       -0.052220
H        2.315455       -0.386849        0.723102
H        2.328395       -0.102803       -0.993183
H        1.683407        1.165389        0.108476
N        0.400680       -0.488041        0.020227
N       -0.344036        0.447045        0.092666
10
  Step 43: 43.0 fs
C       -1.834256       -0.082099       -0.053415
H       -2.586818        0.730174        0.705992
H       -2.000340        0.166070       -1.076891
H       -1.695495       -1.169788        0.249588
C        1.766875        0.088495       -0.052717
H        2.356995       -0.394238        0.753012
H        2.293100       -0.106020       -0.972086
H        1.693502        1.151991        0.118135
N        0.392831       -0.485863        0.016213
N       -0.339416        0.453210        0.090672
10
  Step 44: 44.0 fs
C       -1.833048       -0.077345       -0.048579
H       -2.567077        0.676073        0.693252
H       -1.997597        0.109995       -1.075470
H       -1.734676       -1.203631        0.234113
C        1.771129        0.087655       -0.051943
H        2.397908       -0.399891        0.781373
H        2.256827       -0.113004       -0.959159
H        1.704867        1.144342        0.128470
N        0.386721       -0.484892        0.011655
N       -0.337935        0.460711        0.088637
10
  Step 45: 45.0 fs
C       -1.831214       -0.071734       -0.040399
H       -2.527960        0.597592        0.659455
H       -2.003053        0.054396       -1.087131
H       -1.782263       -1.219230        0.214366
C        1.776101        0.085804       -0.048625
H        2.431433       -0.400347        0.799979
H        2.225801       -0.125408       -0.963251
H        1.717101        1.144424        0.139395
N        0.382547       -0.485020        0.006684
N       -0.339652        0.469310        0.086617
10
  Step 46: 46.0 fs
C       -1.828633       -0.066196       -0.029918
H       -2.475945        0.503551        0.610168
H       -2.015697        0.001236       -1.107498
H       -1.834225       -1.214125        0.192227
C        1.781745        0.082892       -0.042327
H        2.453741       -0.394479        0.804433
H        2.202594       -0.143278       -0.986527
H        1.730018        1.151274        0.150164
N        0.380279       -0.485906        0.001464
N       -0.344388        0.478545        0.084646
10
  Step 47: 47.0 fs
C       -1.824373       -0.062219       -0.019606
H       -2.428972        0.413304        0.562459
H       -2.033385       -0.047379       -1.127498
H       -1.885946       -1.190230        0.170263
C        1.788159        0.079041       -0.033613
H        2.463570       -0.383039        0.793653
H        2.185472       -0.164317       -1.021990
H        1.743517        1.161537        0.159462
N        0.379701       -0.487047       -0.003825
N       -0.351789        0.487806        0.082744
10
  Step 48: 48.0 fs
C       -1.816131       -0.061976       -0.013198
H       -2.421501        0.357807        0.548878
H       -2.053807       -0.088620       -1.138844
H       -1.932673       -1.154043        0.151276
C        1.795366        0.074497       -0.023683
H        2.462174       -0.368459        0.769766
H        2.171137       -0.184930       -1.058016
H        1.757448        1.170992        0.165816
N        0.380490       -0.487872       -0.008992
N       -0.361391        0.496430        0.080927
10
  Step 49: 49.0 fs
C       -1.802839       -0.065952       -0.012809
H       -2.472906        0.351958        0.586405
H       -2.074993       -0.119485       -1.137100
H       -1.970225       -1.116647        0.138165
C        1.803046        0.069664       -0.013938
H        2.453917       -0.355104        0.738640
H        2.157280       -0.201894       -1.084414
H        1.771569        1.176041        0.168077
N        0.382293       -0.487827       -0.013856
N       -0.372661        0.503782        0.079202
10
  Step 50: 50.0 fs
C       -1.787501       -0.071511       -0.016420
H       -2.553298        0.376001        0.647197
H       -2.095441       -0.137488       -1.122174
H       -1.996044       -1.091547        0.133971
C        1.810485        0.065089       -0.005789
H        2.446403       -0.349107        0.709795
H        2.143104       -0.213098       -1.094814
H        1.785593        1.174546        0.165705
N        0.384784       -0.486450       -0.018252
N       -0.385002        0.509331        0.077558
10
  Step 51: 51.0 fs
C       -1.773342       -0.076243       -0.021572
H       -2.628672        0.409255        0.701932
H       -2.114264       -0.141021       -1.097149
H       -2.009320       -1.088391        0.141362
C        1.816786        0.061313       -0.000420
H        2.448303       -0.356883        0.693711
H        2.129042       -0.217665       -1.087000
H        1.799298        1.166228        0.158897
N        0.387677       -0.483412       -0.022039
N       -0.397804        0.512707        0.075972
10
  Step 52: 52.0 fs
C       -1.762086       -0.079382       -0.026829
H       -2.682203        0.441289        0.737389
H       -2.131409       -0.129663       -1.067233
H       -2.009508       -1.107189        0.161327
C        1.821401        0.058542        0.001726
H        2.463586       -0.381341        0.695439
H        2.116422       -0.215903       -1.062647
H        1.812603        1.152752        0.148623
N        0.390707       -0.478525       -0.025104
N       -0.410481        0.513719        0.074425
10
  Step 53: 53.0 fs
C       -1.754569       -0.081328       -0.031179
H       -2.707448        0.467272        0.749530
H       -2.147740       -0.104346       -1.038949
H       -1.995520       -1.139102        0.192188
C        1.824462        0.056432        0.001327
H        2.487547       -0.419045        0.710557
H        2.107405       -0.209434       -1.027616
H        1.825625        1.137520        0.136504
N        0.393633       -0.471741       -0.027374
N       -0.422498        0.512361        0.072897
10
  Step 54: 54.0 fs
C       -1.751168       -0.082871       -0.033724
H       -2.702302        0.484647        0.738112
H       -2.164703       -0.067256       -1.018711
H       -1.966770       -1.172244        0.229943
C        1.826454        0.054343       -0.000160
H        2.510666       -0.462457        0.729556
H        2.104984       -0.201253       -0.992025
H        1.838684        1.124917        0.124573
N        0.396255       -0.463139       -0.028815
N       -0.433389        0.508781        0.071371
10
  Step 55: 55.0 fs
C       -1.751981       -0.084679       -0.033814
H       -2.666678        0.491901        0.704709
H       -2.183158       -0.021553       -1.010441
H       -1.924283       -1.196602        0.269464
C        1.827730        0.051767       -0.001126
H        2.524521       -0.504047        0.744017
H        2.112541       -0.195263       -0.968492
H        1.852244        1.118794        0.114877
N        0.398433       -0.452918       -0.029435
N       -0.442772        0.503263        0.069825
10
  Step 56: 56.0 fs
C       -1.756907       -0.087126       -0.031308
H       -2.602445        0.488483        0.652664
H       -2.202117        0.028861       -1.013611
H       -1.870847       -1.205896        0.305700
C        1.828459        0.048498       -0.000473
H        2.524089       -0.538382        0.748962
H        2.132215       -0.194495       -0.966098
H        1.866780        1.120654        0.108964
N        0.400104       -0.441384       -0.029286
N       -0.450381        0.496197        0.068235
10
  Step 57: 57.0 fs
C       -1.765505       -0.090350       -0.026715
H       -2.515367        0.475998        0.588582
H       -2.218669        0.079237       -1.023897
H       -1.810616       -1.197848        0.334562