10
  Step 0: 0.0 fs
C       -1.803709       -0.067737        0.000067
H       -2.311478        0.330688        0.889261
H       -2.311378        0.329962       -0.889466
H       -1.816448       -1.165812        0.000658
C        1.803678        0.067719        0.000032
H        2.310906       -0.329688        0.890034
H        2.312176       -0.330870       -0.888643
H        1.816225        1.165786       -0.000408
N        0.410953       -0.460078       -0.000163
N       -0.410928        0.460085       -0.000129
10
  Step 1: 1.0 fs
C       -1.793009       -0.057993       -0.003225
H       -2.381063        0.289971        0.953931
H       -2.303195        0.295324       -0.904214
H       -1.837720       -1.228311       -0.000897
C        1.794941        0.058924       -0.008056
H        2.308032       -0.326422        0.896416
H        2.262921       -0.341193       -0.817158
H        1.830195        1.208517        0.007826
N        0.411877       -0.447654       -0.000774
N       -0.404838        0.454199        0.000558
10
  Step 2: 2.0 fs
C       -1.783413       -0.049824       -0.005238
H       -2.439351        0.246723        1.001998
H       -2.295706        0.263437       -0.918718
H       -1.856238       -1.273306       -0.002709
C        1.785454        0.052263       -0.013664
H        2.303020       -0.322402        0.901200
H        2.229235       -0.362787       -0.772843
H        1.843631        1.237363        0.014525
N        0.413152       -0.436039       -0.001335
N       -0.399400        0.449124        0.001350
10
  Step 3: 3.0 fs
C       -1.775697       -0.044244       -0.005414
H       -2.479528        0.201959        1.025059
H       -2.289104        0.236305       -0.932200
H       -1.869549       -1.292689       -0.004854
C        1.774721        0.049249       -0.014925
H        2.294409       -0.317294        0.903478
H        2.223297       -0.405730       -0.776083
H        1.855910        1.244976        0.018034
N        0.415114       -0.426020       -0.001799
N       -0.395239        0.445649        0.002327
10
  Step 4: 4.0 fs
C       -1.770366       -0.041833       -0.003679
H       -2.498190        0.158159        1.020139
H       -2.283079        0.215286       -0.943341
H       -1.875732       -1.284209       -0.007357
C        1.763676        0.049688       -0.012654
H        2.281788       -0.311468        0.903322
H        2.239585       -0.464437       -0.816486
H        1.866407        1.229399        0.017014
N        0.417974       -0.418261       -0.002124
N       -0.392869        0.444428        0.003548
10
  Step 5: 5.0 fs
C       -1.767704       -0.042850       -0.000247
H       -2.494356        0.118356        0.987759
H       -2.277072        0.201291       -0.950673
H       -1.873343       -1.249483       -0.010298
C        1.753956        0.052210       -0.009091
H        2.265835       -0.306001        0.901632
H        2.263106       -0.523102       -0.867636
H        1.874639        1.193337        0.010574
N        0.421723       -0.413211       -0.002287
N       -0.392588        0.445882        0.005054
10
  Step 6: 6.0 fs
C       -1.767711       -0.047206        0.004430
H       -2.469646        0.086011        0.931972
H       -2.270618        0.194943       -0.953085
H       -1.861438       -1.194263       -0.013937
C        1.746714        0.055363       -0.005936
H        2.248103       -0.302412        0.899878
H        2.282887       -0.569475       -0.910132
H        1.880606        1.144544       -0.001827
N        0.426085       -0.411019       -0.002289
N       -0.394415        0.450121        0.006873
10
  Step 7: 7.0 fs
C       -1.769919       -0.054302        0.009531
H       -2.429995        0.065145        0.862405
H       -2.263611        0.196574       -0.950248
H       -1.839748       -1.130501       -0.018885
C        1.742450        0.057690       -0.004095
H        2.230584       -0.302167        0.899796
H        2.293655       -0.597398       -0.934245
H        1.885222        1.096684       -0.020510
N        0.430531       -0.411514       -0.002148
N       -0.398081        0.456932        0.009027
10
  Step 8: 8.0 fs
C       -1.773105       -0.062810        0.013585
H       -2.388776        0.060516        0.797960
H       -2.256372        0.206088       -0.942740
H       -1.808841       -1.078893       -0.026247
C        1.741235        0.057647       -0.003966
H        2.215143       -0.306061        0.902826
H        2.293555       -0.604690       -0.936072
H        1.890353        1.067331       -0.045688
N        0.434363       -0.414238       -0.001884
N       -0.403106        0.465833        0.011534
10
  Step 9: 9.0 fs
C       -1.775340       -0.070989        0.014474
H       -2.366913        0.077234        0.766395
H       -2.249575        0.222820       -0.931966
H       -1.769741       -1.064647       -0.037373
C        1.742972        0.054208       -0.005618
H        2.203030       -0.313723        0.909485
H        2.282652       -0.591622       -0.915052
H        1.897569        1.068674       -0.077285
N        0.436835       -0.418532       -0.001518
N       -0.408892        0.476163        0.014401
10
  Step 10: 10.0 fs
C       -1.775366       -0.078017        0.010994
H       -2.377471        0.117416        0.784551
H       -2.244166        0.245594       -0.920073
H       -1.723650       -1.098390       -0.052494
C        1.747582        0.047723       -0.008886
H        2.194692       -0.323560        0.919122
H        2.262657       -0.560733       -0.873556
H        1.906310        1.097042       -0.113912
N        0.437286       -0.423645       -0.001064
N       -0.414808        0.487195        0.017613
10
  Step 11: 11.0 fs
C       -1.773915       -0.084577        0.004513
H       -2.408751        0.174557        0.836984
H       -2.241238        0.272895       -0.909551
H       -1.673650       -1.163620       -0.069521
C        1.754852        0.039747       -0.013293
H        2.189912       -0.333162        0.930141
H        2.237942       -0.518003       -0.818640
H        1.914248        1.136579       -0.152308
N        0.435259       -0.428825       -0.000536
N       -0.420262        0.498217        0.021128
10
  Step 12: 12.0 fs
C       -1.772327       -0.091641       -0.002682
H       -2.440205        0.236549        0.895887
H       -2.241629        0.302801       -0.902088
H       -1.624974       -1.233800       -0.085529
C        1.764037        0.032298       -0.017684
H        2.188114       -0.339962        0.940535
H        2.217710       -0.475141       -0.765641
H        1.919202        1.171142       -0.188451
N        0.430578       -0.433398        0.000046
N       -0.424796        0.508578        0.024889
10
  Step 13: 13.0 fs
C       -1.771343       -0.099630       -0.009135
H       -2.458920        0.292965        0.942508
H       -2.245443        0.332861       -0.897619
H       -1.582787       -1.289383       -0.098497
C        1.773687        0.027452       -0.020080
H        2.188720       -0.341850        0.948442
H        2.216664       -0.449868       -0.739157
H        1.920070        1.190202       -0.218890
N        0.423357       -0.436816        0.000652
N       -0.428135        0.517715        0.028839
10
  Step 14: 14.0 fs
C       -1.771213       -0.108425       -0.014261
H       -2.459762        0.337041        0.968094
H       -2.251929        0.360176       -0.894586
H       -1.550841       -1.320031       -0.107464
C        1.782503        0.026461       -0.019033
H        2.191452       -0.337595        0.952686
H        2.245313       -0.454821       -0.756889
H        1.916689        1.189002       -0.241231
N        0.413934       -0.438700        0.001240
N       -0.430166        0.525187        0.032912
10
  Step 15: 15.0 fs
C       -1.771981       -0.117600       -0.017933
H       -2.441787        0.364688        0.969584
H       -2.259805        0.381799       -0.890958
H       -1.531528       -1.321681       -0.112109
C        1.790596        0.028672       -0.015564
H        2.196491       -0.326998        0.953205
H        2.295963       -0.483131       -0.807159
H        1.909499        1.167279       -0.254149
N        0.402799       -0.438850        0.001770
N       -0.430916        0.530714        0.037033
10
  Step 16: 16.0 fs
C       -1.773621       -0.126550       -0.020201
H       -2.406230        0.373473        0.947081
H       -2.267695        0.395213       -0.885186
H       -1.526142       -1.294712       -0.112479
C        1.798786        0.032415       -0.011887
H        2.204417       -0.310806        0.951004
H        2.351627       -0.518721       -0.863954
H        1.899463        1.128981       -0.257626
N        0.390540       -0.437243        0.002207
N       -0.430505        0.534181        0.041117
10
  Step 17: 17.0 fs
C       -1.776049       -0.134519       -0.021205
H       -2.356128        0.362437        0.903418
H       -2.274517        0.398766       -0.876844
H       -1.534798       -1.244085       -0.108965
C        1.807489        0.036045       -0.009518
H        2.215962       -0.290435        0.947807
H        2.399674       -0.549952       -0.908629
H        1.888096        1.083169       -0.253441
N        0.377818       -0.434024        0.002520
N       -0.429124        0.535652        0.045068
10
  Step 18: 18.0 fs
C       -1.779085       -0.140523       -0.021257
H       -2.297139        0.333019        0.845603
H       -2.279777        0.391995       -0.866906
H       -1.555816       -1.181474       -0.102517
C        1.816648        0.037979       -0.009046
H        2.231668       -0.267582        0.945552
H        2.433502       -0.570865       -0.932030
H        1.877251        1.044510       -0.245385
N        0.365328       -0.429498        0.002686
N       -0.427020        0.535352        0.048791
10
  Step 19: 19.0 fs
C       -1.782328       -0.143315       -0.021142
H       -2.239485        0.291438        0.788478
H       -2.283749        0.375793       -0.857611
H       -1.584839       -1.128058       -0.094935
C        1.826036        0.036767       -0.010478
H        2.251511       -0.243789        0.945692
H        2.450146       -0.578789       -0.930672
H        1.868465        1.029516       -0.238209
N        0.353765       -0.424114        0.002685
N       -0.424493        0.533650        0.052194
10
  Step 20: 20.0 fs
C       -1.784927       -0.141905       -0.022488
H       -2.199260        0.250959        0.758186
H       -2.287569        0.352421       -0.851949
H       -1.615814       -1.110371       -0.088578
C        1.835480        0.031860       -0.013649
H        2.274678       -0.220163        0.948656
H        2.448709       -0.573010       -0.904329
H        1.862289        1.045734       -0.234671
N        0.343798       -0.418440        0.002504
N       -0.421903        0.531008        0.055198
10
  Step 21: 21.0 fs
C       -1.785776       -0.136686       -0.027072
H       -2.191481        0.225570        0.781383
H       -2.293167        0.325314       -0.852977
H       -1.645373       -1.140249       -0.084739
C        1.844843        0.024206       -0.018359
H        2.299536       -0.197270        0.953671
H        2.430244       -0.554778       -0.855841
H        1.858504        1.084535       -0.233780
N        0.336052       -0.413106        0.002128
N       -0.419671        0.527935        0.057752
10
  Step 22: 22.0 fs
C       -1.784779       -0.129180       -0.034318
H       -2.214030        0.214096        0.853690
H       -2.302756        0.298348       -0.862964
H       -1.674499       -1.201420       -0.082749
C        1.853802        0.015693       -0.024043
H        2.323821       -0.175237        0.958993
H        2.399134       -0.528644       -0.793055
H        1.856949        1.128914       -0.232919
N        0.331096       -0.408727        0.001542
N       -0.418235        0.524925        0.059827
10
  Step 23: 23.0 fs
C       -1.782985       -0.120892       -0.041559
H       -2.251298        0.205181        0.942859
H       -2.317605        0.274506       -0.881998
H       -1.704415       -1.266938       -0.081476
C        1.861536        0.008512       -0.029304
H        2.345077       -0.154069        0.962541
H        2.365859       -0.505205       -0.732514
H        1.857758        1.164074       -0.230348
N        0.329385       -0.405817        0.000731
N       -0.417979        0.522397        0.061416
10
  Step 24: 24.0 fs
C       -1.781531       -0.112979       -0.046764
H       -2.290080        0.191784        1.021033
H       -2.336820        0.254933       -0.906867
H       -1.734556       -1.316892       -0.080271
C        1.866634        0.004957       -0.031905
H        2.361235       -0.133984        0.962687
H        2.347685       -0.502028       -0.699808
H        1.861182        1.180985       -0.225779
N        0.331178       -0.404695       -0.000306
N       -0.419146        0.520615        0.062526
10
  Step 25: 25.0 fs
C       -1.781293       -0.106172       -0.049192
H       -2.323030        0.172281        1.073319
H       -2.357427        0.239329       -0.931795
H       -1.763292       -1.340863       -0.078917
C        1.868120        0.006455       -0.030351
H        2.371108       -0.115638        0.958958
H        2.356413       -0.531471       -0.711902
H        1.867337        1.176001       -0.219969
N        0.336466       -0.405428       -0.001548
N       -0.421771        0.519638        0.063172
10
  Step 26: 26.0 fs
C       -1.782906       -0.100879       -0.048850
H       -2.346505        0.147615        1.093387
H       -2.375791        0.227091       -0.950710
H       -1.788742       -1.334961       -0.077416
C        1.866755        0.012186       -0.025759
H        2.374664       -0.100156        0.952402
H        2.383102       -0.583650       -0.755752
H        1.876053        1.150216       -0.214335
N        0.344950       -0.407822       -0.002937
N       -0.425665        0.519311        0.063365
10
  Step 27: 27.0 fs
C       -1.786768       -0.097269       -0.045988
H       -2.358802        0.119710        1.079431
H       -2.388947        0.218042       -0.959099
H       -1.809090       -1.299890       -0.075925
C        1.863954        0.020062       -0.020336
H        2.372930       -0.089002        0.945282
H        2.410780       -0.638381       -0.805973
H        1.886921        1.109750       -0.210943
N        0.356092       -0.411476       -0.004392
N       -0.430452        0.519305        0.063105
10
  Step 28: 28.0 fs
C       -1.793014       -0.095246       -0.040923
H       -2.359688        0.091100        1.032961
H       -2.395289        0.212630       -0.954855
H       -1.822699       -1.240975       -0.074823
C        1.860592        0.027993       -0.015586
H        2.367585       -0.083667        0.940391
H        2.428605       -0.681348       -0.845145
H        1.899534        1.066526       -0.212711
N        0.369199       -0.415868       -0.005833
N       -0.435631        0.519191        0.062394
10
  Step 29: 29.0 fs
C       -1.801440       -0.094284       -0.034076
H       -2.350917        0.065077        0.959743
H       -2.394810        0.211877       -0.938567
H       -1.828250       -1.170174       -0.074919
C        1.857015        0.034069       -0.012151
H        2.360278       -0.085182        0.940089
H        2.432094       -0.705527       -0.864878
H        1.913802        1.037055       -0.223205
N        0.383498       -0.420432       -0.007184
N       -0.440664        0.518524        0.061236
10
  Step 30: 30.0 fs
C       -1.811309       -0.093231       -0.026264
H       -2.338346        0.046121        0.873570
H       -2.389044        0.217200       -0.913546
H       -1.824908       -1.108641       -0.077746
C        1.853347        0.036946       -0.010185
H        2.351964       -0.093659        0.945307
H        2.420276       -0.708430       -0.862027
H        1.929992        1.034619       -0.245064
N        0.398202       -0.424643       -0.008382
N       -0.445044        0.516912        0.059653
10
  Step 31: 31.0 fs
C       -1.821103       -0.090660       -0.019160
H       -2.335263        0.040149        0.801164
H       -2.380705        0.230157       -0.885501
H       -1.812332       -1.082553       -0.085500
C        1.849725        0.036597       -0.009732
H        2.342614       -0.108081        0.955091
H        2.394120       -0.690405       -0.836546
H        1.947893        1.058547       -0.277244
N        0.412540       -0.428063       -0.009371
N       -0.448347        0.514064        0.057694
10
  Step 32: 32.0 fs
C       -1.828749       -0.086325       -0.014976
H       -2.360284        0.052844        0.776160
H       -2.373078        0.252163       -0.861677
H       -1.790860       -1.103914       -0.099561
C        1.846348        0.034254       -0.010802
H        2.331452       -0.126455        0.966986
H        2.356489       -0.654591       -0.791427
H        1.966139        1.095125       -0.314525
N        0.425791       -0.430363       -0.010103
N       -0.450248        0.509807        0.055435
10
  Step 33: 33.0 fs
C       -1.833309       -0.081731       -0.014068
H       -2.417524        0.084085        0.806517
H       -2.368851        0.283907       -0.848626
H       -1.762895       -1.157523       -0.118470
C        1.843261        0.031635       -0.013047
H        2.317505       -0.146253        0.978025
H        2.313417       -0.608536       -0.734719
H        1.982756        1.128797       -0.350351
N        0.437324       -0.431335       -0.010546
N       -0.450517        0.504096        0.052964
10
  Step 34: 34.0 fs
C       -1.835856       -0.078462       -0.014328
H       -2.487600        0.125998        0.865029
H       -2.368632        0.324369       -0.848808
H       -1.733020       -1.217562       -0.138888
C        1.840022        0.030664       -0.015331
H        2.300132       -0.164936        0.985723
H        2.276344       -0.567238       -0.682979
H        1.996026        1.149039       -0.379345
N        0.446629       -0.430884       -0.010685
N       -0.449023        0.496982        0.050364
10
  Step 35: 35.0 fs
C       -1.837818       -0.077222       -0.014018
H       -2.549667        0.169589        0.923501
H       -2.370192        0.370103       -0.858826
H       -1.706037       -1.264615       -0.157791
C        1.835688        0.033367       -0.015847
H        2.279383       -0.180387        0.988737
H        2.261209       -0.551998       -0.659781
H        2.004824        1.150896       -0.398079
N        0.453356       -0.429050       -0.010525
N       -0.445769        0.488605        0.047717
10
  Step 36: 36.0 fs
C       -1.840075       -0.078002       -0.012667
H       -2.591994        0.208635        0.966411
H       -2.369715        0.415916       -0.871699
H       -1.685696       -1.288342       -0.173207
C        1.829845        0.040585       -0.013770
H        2.256136       -0.191188        0.987192
H        2.275976       -0.573605       -0.676501
H        2.008572        1.133833       -0.404892
N        0.457318       -0.426009       -0.010092
N       -0.440902        0.479206        0.045099
10
  Step 37: 37.0 fs
C       -1.843016       -0.080439       -0.010441
H       -2.609589        0.239382        0.987075
H       -2.363848        0.456566       -0.880681
H       -1.674596       -1.284772       -0.184020
C        1.823443        0.050843       -0.010505
H        2.232039       -0.196760        0.982664
H        2.310489       -0.618406       -0.717503
H        2.007287        1.101380       -0.399864
N        0.458514       -0.422087       -0.009429
N       -0.434704        0.469145        0.042584
10
  Step 38: 38.0 fs
C       -1.846718       -0.084000       -0.007622
H       -2.600919        0.259512        0.983229
H       -2.350702        0.487943       -0.881292
H       -1.674382       -1.254438       -0.189759
C        1.817694        0.061751       -0.007899
H        2.209225       -0.197320        0.977598
H        2.349276       -0.665692       -0.760261
H        2.001899        1.061738       -0.385327
N        0.457147       -0.417743       -0.008599
N       -0.427586        0.458910        0.040234
10
  Step 39: 39.0 fs
C       -1.851062       -0.087989       -0.004404
H       -2.566607        0.267636        0.955347
H       -2.330022        0.507616       -0.871880
H       -1.685776       -1.202337       -0.190672
C        1.813180        0.071108       -0.006847
H        2.189834       -0.193613        0.974552
H        2.382130       -0.701981       -0.790804
H        1.994583        1.028476       -0.366326
N        0.453635       -0.413548       -0.007682
N       -0.420065        0.449101        0.038105
10
  Step 40: 40.0 fs
C       -1.855756       -0.091431       -0.000903
H       -2.509627        0.263524        0.906967
H       -2.303037        0.515072       -0.853578
H       -1.708216       -1.139585       -0.188099
C        1.809974        0.077043       -0.007413
H        2.175475       -0.186491        0.975451
H        2.403866       -0.720603       -0.802846
H        1.988318        1.017930       -0.349524
N        0.448594       -0.410156       -0.006771
N       -0.412762        0.440401        0.036252
10
  Step 41: 41.0 fs
C       -1.860225       -0.092993        0.002684
H       -2.437142        0.249323        0.847361
H       -2.272384        0.512015       -0.830293
H       -1.739415       -1.085664       -0.185080
C        1.808046        0.078567       -0.009423
H        2.166852       -0.176545        0.980991
H        2.412167       -0.718752       -0.794334
H        1.984857        1.039392       -0.339047
N        0.442758       -0.408249       -0.005951
N       -0.406351        0.433491        0.034713
10
  Step 42: 42.0 fs
C       -1.863272       -0.091511        0.005571
H       -2.363695        0.232122        0.796775
H       -2.241926        0.502507       -0.808402
H       -1.776140       -1.064469       -0.185923
C        1.807547        0.076189       -0.012881
H        2.163679       -0.163941        0.990416
H        2.406439       -0.695991       -0.765690
H        1.982928        1.086148       -0.333208
N        0.436860       -0.408435       -0.005294
N       -0.401471        0.428929        0.033511
10
  Step 43: 43.0 fs
C       -1.862939       -0.087485        0.005915
H       -2.310629        0.224890        0.787755
H       -2.216405        0.492541       -0.795753
H       -1.816692       -1.087125       -0.192844
C        1.808652        0.071448       -0.017732
H        2.164833       -0.148472        1.001710
H        2.388018       -0.654446       -0.719936
H        1.979583        1.141302       -0.327265
N        0.431521       -0.411137       -0.004856
N       -0.398618        0.427037        0.032641
10
  Step 44: 44.0 fs
C       -1.858009       -0.083028        0.002460
H       -2.289401        0.235887        0.839973
H       -2.200330        0.488067       -0.798897
H       -1.861022       -1.140267       -0.203137
C        1.811185        0.066152       -0.023409
H        2.168708       -0.129803        1.012210
H        2.361879       -0.600757       -0.664610
H        1.972440        1.189000       -0.317533
N        0.427172       -0.416503       -0.004681
N       -0.398045        0.427835        0.032062
10
  Step 45: 45.0 fs
C       -1.849510       -0.079482       -0.003079
H       -2.288177        0.257146        0.930685
H       -2.196251        0.491902       -0.819105
H       -1.907968       -1.200143       -0.212085
C        1.814248        0.062321       -0.028512
H        2.173662       -0.107834        1.019425
H        2.339780       -0.549490       -0.614949
H        1.960404        1.218947       -0.302615
N        0.424004       -0.424366       -0.004801
N       -0.399687        0.431016        0.031705
10
  Step 46: 46.0 fs
C       -1.839232       -0.077056       -0.008375
H       -2.291020        0.276879        1.023844
H       -2.203561        0.501965       -0.850379
H       -1.954625       -1.247887       -0.216229
C        1.816204        0.062181       -0.030995
H        2.178420       -0.082998        1.021726
H        2.340393       -0.522445       -0.592913
H        1.943366        1.226245       -0.282931
N        0.421962       -0.434282       -0.005235
N       -0.403202        0.436004        0.031481
10
  Step 47: 47.0 fs
C       -1.828577       -0.075515       -0.012434
H       -2.289543        0.288821        1.096687
H       -2.219167        0.513098       -0.882484
H       -1.997495       -1.272757       -0.213920
C        1.815972        0.066787       -0.029704
H        2.182354       -0.056409        1.018893
H        2.374538       -0.531151       -0.610125
H        1.921768        1.210509       -0.260075
N        0.420797       -0.445620       -0.005984
N       -0.408053        0.442048        0.031303
10
  Step 48: 48.0 fs
C       -1.818547       -0.074522       -0.015146
H       -2.280756        0.290954        1.138766
H       -2.239261        0.520357       -0.905872
H       -2.033274       -1.270173       -0.204777
C        1.814357        0.074691       -0.025686
H        2.185640       -0.029825        1.012337
H        2.429826       -0.561397       -0.652792
H        1.896385        1.176170       -0.236637
N        0.420136       -0.457666       -0.007027
N       -0.413606        0.448340        0.031081
10
  Step 49: 49.0 fs
C       -1.809871       -0.073733       -0.016620
H       -2.264112        0.283263        1.146225
H       -2.260509        0.520702       -0.914144
H       -2.059221       -1.240076       -0.189283
C        1.812736        0.083383       -0.020643
H        2.189176       -0.005410        1.004737
H        2.486201       -0.591938       -0.699583
H        1.868328        1.133741       -0.216414
N        0.419596       -0.469712       -0.008330
N       -0.419206        0.454116        0.030728
10
  Step 50: 50.0 fs
C       -1.803049       -0.072751       -0.016907
H       -2.240264        0.266777        1.118894
H       -2.280544        0.513268       -0.904460
H       -2.073444       -1.186712       -0.168687
C        1.811858        0.090489       -0.015614
H        2.194230        0.014731        0.999258
H        2.530464       -0.609524       -0.736599
H        1.838858        1.100022       -0.204277
N        0.418865       -0.481130       -0.009846
N       -0.424247        0.458724        0.030154
10
  Step 51: 51.0 fs
C       -1.798290       -0.070993       -0.015985
H       -2.210945        0.243566        1.060049
H       -2.298144        0.499162       -0.877268
H       -2.075485       -1.120016       -0.145199
C        1.811956        0.094153       -0.011018
H        2.201867        0.029143        0.998414
H        2.556283       -0.608309       -0.757152
H        1.808743        1.092485       -0.204729
N        0.417715       -0.491401       -0.011529
N       -0.428197        0.461650        0.029269
10
  Step 52: 52.0 fs
C       -1.795326       -0.067546       -0.013943
H       -2.179740        0.217467        0.978781
H       -2.313456        0.481349       -0.836278
H       -2.067235       -1.057871       -0.122201
C        1.813077        0.093857       -0.007067
H        2.212369        0.037428        1.002974
H        2.561264       -0.586718       -0.758712
H        1.778083        1.116006       -0.218982
N        0.415993       -0.500139       -0.013329
N       -0.430623        0.462530        0.027987
10
  Step 53: 53.0 fs
C       -1.793210       -0.061447       -0.011467
H       -2.153948        0.195460        0.895339
H       -2.328319        0.464494       -0.788618
H       -2.052872       -1.024136       -0.103755
C        1.815150        0.090716       -0.003982
H        2.224947        0.040253        1.011601
H        2.545459       -0.545899       -0.741368
H        1.747425        1.157828       -0.243537
N        0.413611       -0.507090       -0.015192
N       -0.431212        0.461162        0.026232
10
  Step 54: 54.0 fs
C       -1.790437       -0.052828       -0.010388
H       -2.146104        0.188079        0.844742
H       -2.346241        0.454255       -0.744114
H       -2.035482       -1.034822       -0.092638
C        1.817879        0.086509       -0.001822
H        2.237900        0.038995        1.021470
H        2.511690       -0.489806       -0.708137
H        1.718354        1.199374       -0.272452
N        0.410553       -0.512129       -0.017072
N       -0.429807        0.457519        0.023953
10
  Step 55: 55.0 fs
C       -1.785947       -0.043535       -0.012367
H       -2.166731        0.202901        0.856622
H       -2.371117        0.455530       -0.712581
H       -2.013594       -1.082534       -0.088615
C        1.820564        0.082950       -0.000160
H        2.249185        0.035255        1.029485
H        2.467725       -0.426704       -0.667234
H        1.692798        1.226866       -0.300096
N        0.406902       -0.515268       -0.018928
N       -0.426414        0.451766        0.021136
10
  Step 56: 56.0 fs
C       -1.780436       -0.035348       -0.016107
H       -2.209006        0.234392        0.918356
H       -2.404182        0.469685       -0.699034
H       -1.984209       -1.144406       -0.089548
C        1.821842        0.081709        0.002200
H        2.257027        0.030466        1.033263
H        2.429354       -0.370950       -0.635287
H        1.672305        1.233308       -0.322209
N        0.402859       -0.516674       -0.020733
N       -0.421210        0.444254        0.017795
10
  Step 57: 57.0 fs
C       -1.775675       -0.028925       -0.019095
H       -2.255897        0.270445        0.994713
H       -2.441352        0.493031       -0.700755
H       -1.946568       -1.199256       -0.093259