10
  Step 0: 0.0 fs
C       -1.803709       -0.067738        0.000064
H       -2.311469        0.330664        0.889279
H       -2.311374        0.329960       -0.889453
H       -1.816424       -1.165809        0.000672
C        1.803673        0.067715        0.000031
H        2.310881       -0.329686        0.890045
H        2.312190       -0.330886       -0.888628
H        1.816228        1.165793       -0.000416
N        0.410954       -0.460076       -0.000165
N       -0.410927        0.460089       -0.000128
10
  Step 1: 1.0 fs
C       -1.812402       -0.073514       -0.001477
H       -2.266930        0.330574        0.842557
H       -2.332964        0.370749       -0.855664
H       -1.855587       -1.236754        0.062527
C        1.808500        0.068449        0.008783
H        2.284102       -0.377812        0.893333
H        2.322256       -0.381668       -0.956911
H        1.803350        1.201247        0.016663
N        0.420854       -0.458047       -0.002707
N       -0.414215        0.469126       -0.003838
10
  Step 2: 2.0 fs
C       -1.820195       -0.080878       -0.003911
H       -2.232360        0.338283        0.815145
H       -2.354660        0.408128       -0.825180
H       -1.893369       -1.289679        0.120085
C        1.813714        0.069122        0.016209
H        2.259431       -0.423941        0.895815
H        2.324956       -0.422819       -1.007930
H        1.792822        1.226191        0.033453
N        0.430141       -0.455497       -0.005263
N       -0.417158        0.477361       -0.007640
10
  Step 3: 3.0 fs
C       -1.826546       -0.090594       -0.007832
H       -2.214121        0.359704        0.821285
H       -2.376300        0.439119       -0.800147
H       -1.928377       -1.315342        0.169468
C        1.819327        0.069672        0.021774
H        2.238489       -0.465907        0.896381
H        2.318003       -0.449168       -1.033531
H        1.786642        1.234383        0.049783
N        0.438302       -0.452015       -0.007861
N       -0.419471        0.484138       -0.011622
10
  Step 4: 4.0 fs
C       -1.831710       -0.102280       -0.012538
H       -2.209579        0.392216        0.857188
H       -2.397301        0.461071       -0.781122
H       -1.959364       -1.310508        0.207685
C        1.825212        0.069907        0.025369
H        2.222400       -0.501572        0.893947
H        2.301595       -0.458259       -1.030834
H        1.786357        1.223931        0.065564
N        0.444938       -0.447338       -0.010530
N       -0.420949        0.488980       -0.015860
10
  Step 5: 5.0 fs
C       -1.836378       -0.114704       -0.016469
H       -2.211093        0.426588        0.906194
H       -2.416775        0.471779       -0.767298
H       -1.985293       -1.276371        0.232736
C        1.831201        0.069480        0.027095
H        2.211897       -0.529145        0.887908
H        2.277259       -0.449342       -1.000244
H        1.793032        1.196991        0.080809
N        0.449753       -0.441356       -0.013281
N       -0.421490        0.491592       -0.020409
10
  Step 6: 6.0 fs
C       -1.841077       -0.126393       -0.018342
H       -2.212449        0.454271        0.952516
H       -2.433772        0.469756       -0.757191
H       -2.005597       -1.218960        0.243993
C        1.837077        0.067915        0.027228
H        2.207396       -0.547529        0.878469
H        2.247871       -0.423482       -0.945675
H        1.807219        1.159884        0.095756
N        0.452556       -0.434111       -0.016107
N       -0.421100        0.491861       -0.025288
10
  Step 7: 7.0 fs
C       -1.845973       -0.135706       -0.017568
H       -2.210407        0.470293        0.986274
H       -2.447642        0.454642       -0.749542
H       -2.020736       -1.151481        0.243093
C        1.842479        0.064770        0.026417
H        2.209075       -0.556614        0.866814
H        2.218600       -0.384888       -0.877124
H        1.828929        1.122763        0.111018
N        0.453281       -0.425793       -0.018980
N       -0.419893        0.489846       -0.030493
10
  Step 8: 8.0 fs
C       -1.850863       -0.140598       -0.014180
H       -2.203794        0.472652        1.002477
H       -2.458347        0.427537       -0.744028
H       -2.033027       -1.096826        0.234954
C        1.846713        0.060013        0.026083
H        2.216945       -0.557455        0.855017
H        2.198594       -0.343240       -0.815245
H        1.857747        1.097457        0.127641
N        0.452014       -0.416721       -0.021867
N       -0.418085        0.485776       -0.036002
10
  Step 9: 9.0 fs
C       -1.855291       -0.139044       -0.008530
H       -2.192638        0.461314        0.999441
H       -2.466675        0.391142       -0.741675
H       -2.046089       -1.081699        0.226278
C        1.848730        0.054440        0.028464
H        2.230916       -0.552231        0.845631
H        2.200703       -0.313119       -0.790857
H        1.892990        1.091800        0.146636
N        0.449028       -0.407336       -0.024729
N       -0.415988        0.480046       -0.041795
10
  Step 10: 10.0 fs
C       -1.858930       -0.130845       -0.000726
H       -2.177899        0.437878        0.978277
H       -2.474265        0.349454       -0.744831
H       -2.060683       -1.114634        0.219430
C        1.847948        0.049047        0.034765
H        2.250772       -0.543917        0.841069
H        2.231807       -0.302150       -0.821335
H        1.933450        1.104883        0.168120
N        0.444790       -0.398189       -0.027533
N       -0.414005        0.473223       -0.047861
10
  Step 11: 11.0 fs
C       -1.861806       -0.118386        0.009341
H       -2.161758        0.406102        0.943932
H       -2.482885        0.306606       -0.756097
H       -2.072392       -1.176321        0.210632
C        1.845209        0.044128        0.043287
H        2.275942       -0.535549        0.842761
H        2.282507       -0.302022       -0.887189
H        1.976917        1.128166        0.190955
N        0.439928       -0.389926       -0.030237
N       -0.412616        0.466024       -0.054198
10
  Step 12: 12.0 fs
C       -1.863975       -0.104828        0.021077
H       -2.148379        0.373010        0.907563
H       -2.492948        0.265343       -0.776162
H       -2.076016       -1.240528        0.196192
C        1.842001        0.039836        0.051557
H        2.304984       -0.529177        0.850126
H        2.337190       -0.301480       -0.957028
H        2.020249        1.150747        0.213233
N        0.435145       -0.383232       -0.032788
N       -0.412348        0.459241       -0.060797
10
  Step 13: 13.0 fs
C       -1.865273       -0.092788        0.032693
H       -2.144278        0.349122        0.887639
H       -2.502579        0.226658       -0.802278
H       -2.068741       -1.289360        0.175573
C        1.839566        0.036471        0.058199
H        2.335267       -0.525325        0.860391
H        2.384677       -0.294820       -1.010431
H        2.060024        1.163975        0.233040
N        0.431109       -0.378737       -0.035121
N       -0.413697        0.453622       -0.067634
10
  Step 14: 14.0 fs
C       -1.865480       -0.083993        0.042058
H       -2.155750        0.343710        0.901585
H       -2.508554        0.190901       -0.829056
H       -2.049866       -1.313671        0.150373
C        1.838778        0.034274        0.062790
H        2.363337       -0.523436        0.869658
H        2.418874       -0.280505       -1.037840
H        2.093167        1.162983        0.248956
N        0.428323       -0.376913       -0.037163
N       -0.417026        0.449762       -0.074654
10
  Step 15: 15.0 fs
C       -1.864749       -0.078901        0.048503
H       -2.182967        0.356135        0.948114
H       -2.508097        0.158859       -0.850942
H       -2.019859       -1.309993        0.123027
C        1.840201        0.033306        0.065327
H        2.385824       -0.522786        0.874428
H        2.436816       -0.258919       -1.035823
H        2.117348        1.146727        0.260251
N        0.427022       -0.377976       -0.038838
N       -0.422454        0.448010       -0.081785
10
  Step 16: 16.0 fs
C       -1.863634       -0.076951        0.053025
H       -2.219281        0.376812        1.007418
H       -2.499945        0.131990       -0.864025
H       -1.979888       -1.278843        0.096261
C        1.844101        0.033433        0.065924
H        2.400224       -0.523093        0.872587
H        2.437465       -0.231355       -1.004513
H        2.131194        1.117665        0.267010
N        0.427131       -0.381839       -0.040079
N       -0.429789        0.448428       -0.088939
10
  Step 17: 17.0 fs
C       -1.862615       -0.077268        0.056856
H       -2.256857        0.396015        1.059004
H       -2.484602        0.112187       -0.866741
H       -1.931742       -1.224970        0.072963
C        1.850388        0.034326        0.064748
H        2.405341       -0.524746        0.863824
H        2.421669       -0.199905       -0.947469
H        2.134507        1.081915        0.270348
N        0.428288       -0.388124       -0.040842
N       -0.438539        0.450814       -0.096007
10
  Step 18: 18.0 fs
C       -1.861830       -0.078772        0.060788
H       -2.289987        0.407599        1.090167
H       -2.464256        0.101393       -0.859979
H       -1.877823       -1.159405        0.056016
C        1.858486        0.035494        0.062193
H        2.401430       -0.528772        0.849671
H        2.393388       -0.167864       -0.873831
H        2.128371        1.049102        0.272585
N        0.429933       -0.396232       -0.041113
N       -0.447998        0.454781       -0.102869
10
  Step 19: 19.0 fs
C       -1.861152       -0.079893        0.065264
H       -2.315192        0.408457        1.095204
H       -2.442386        0.101123       -0.846753
H       -1.820611       -1.101857        0.047754
C        1.867149        0.036477        0.059317
H        2.390045       -0.536606        0.833149
H        2.362380       -0.140459       -0.802901
H        2.114804        1.030708        0.277028
N        0.431440       -0.405458       -0.040907
N       -0.457359        0.459858       -0.109402
10
  Step 20: 20.0 fs
C       -1.860399       -0.078798        0.070554
H       -2.330645        0.397559        1.073239
H       -2.423049        0.111935       -0.831443
H       -1.761488       -1.076412        0.049243
C        1.874470        0.037234        0.058196
H        2.373651       -0.549733        0.818027
H        2.345678       -0.124638       -0.766198
H        2.095564        1.034863        0.286621
N        0.432221       -0.415087       -0.040262
N       -0.465826        0.465584       -0.115491
10
  Step 21: 21.0 fs
C       -1.859381       -0.074849        0.076695
H       -2.336129        0.375907        1.027722
H       -2.409784        0.132995       -0.818503
H       -1.701258       -1.093566        0.060205
C        1.878926        0.038206        0.060537
H        2.355038       -0.569209        0.807776
H        2.356872       -0.124577       -0.788099
H        2.071193        1.060789        0.302094
N        0.431786       -0.424460       -0.039236
N       -0.472687        0.471549       -0.121032
10
  Step 22: 22.0 fs
C       -1.857635       -0.069531        0.083202
H       -2.333862        0.347242        0.967675
H       -2.404350        0.161899       -0.810812
H       -1.643445       -1.139183        0.079471
C        1.880859        0.039772        0.065225
H        2.336543       -0.594985        0.804270
H        2.388859       -0.136142       -0.855061
H        2.041561        1.099044        0.321548
N        0.429782       -0.433008       -0.037888
N       -0.477388        0.477400       -0.125919
10
  Step 23: 23.0 fs
C       -1.854320       -0.065188        0.088778
H       -2.330172        0.318977        0.909898
H       -2.406094        0.194929       -0.808557
H       -1.594067       -1.190315        0.104962
C        1.881527        0.042085        0.069813
H        2.319433       -0.625106        0.806825
H        2.424374       -0.151400       -0.933744
H        2.007072        1.137092        0.341793
N        0.426016       -0.440263       -0.036287
N       -0.479571        0.482816       -0.130049
10
  Step 24: 24.0 fs
C       -1.848431       -0.063722        0.091486
H       -2.335508        0.301165        0.876981
H       -2.412434        0.227788       -0.809536
H       -1.558290       -1.230193        0.134062
C        1.881746        0.045131        0.072807
H        2.303804       -0.655724        0.812412
H        2.451584       -0.164497       -0.999853
H        1.969097        1.164514        0.359883
N        0.420467       -0.445864       -0.034503
N       -0.479089        0.487512       -0.133320
10
  Step 25: 25.0 fs
C       -1.839473       -0.065986        0.090047
H       -2.356908        0.299982        0.882947
H       -2.420107        0.256404       -0.810609
H       -1.539040       -1.250076        0.164121
C        1.881787        0.048708        0.073730
H        2.289177       -0.682177        0.817156
H        2.465101       -0.172220       -1.041167
H        1.929678        1.174957        0.373822
N        0.413255       -0.449575       -0.032611
N       -0.475964        0.491264       -0.135658
10
  Step 26: 26.0 fs
C       -1.828195       -0.071551        0.085135
H       -2.388365        0.311517        0.919169
H       -2.426272        0.277507       -0.809034
H       -1.537284       -1.246734        0.192654
C        1.881619        0.052448        0.072561
H        2.275172       -0.700362        0.817881
H        2.463056       -0.172929       -1.052588
H        1.891092        1.166368        0.382676
N        0.404625       -0.451297       -0.030678
N       -0.470339        0.493939       -0.137021
10
  Step 27: 27.0 fs
C       -1.816042       -0.079301        0.078484
H       -2.416538        0.327006        0.965398
H       -2.428992        0.288844       -0.803015
H       -1.552426       -1.221024        0.217494
C        1.881063        0.055856        0.069397
H        2.261832       -0.707603        0.812883
H        2.445376       -0.165840       -1.032971
H        1.855499        1.140738        0.386592
N        0.394922       -0.451075       -0.028758
N       -0.462466        0.495514       -0.137413
10
  Step 28: 28.0 fs
C       -1.804254       -0.087997        0.071557
H       -2.431029        0.339852        1.005449
H       -2.427431        0.289252       -0.792001
H       -1.582360       -1.178203        0.237114
C        1.879845        0.058336        0.064368
H        2.249716       -0.703195        0.802267
H        2.413502       -0.150887       -0.984625
H        1.824632        1.104247        0.386959
N        0.384581       -0.449112       -0.026882
N       -0.452709        0.496075       -0.136874
10
  Step 29: 29.0 fs
C       -1.793661       -0.096236        0.065258
H       -2.426678        0.346875        1.030324
H       -2.421977        0.278772       -0.776991
H       -1.623218       -1.129685        0.251237
C        1.877535        0.059274        0.057792
H        2.239874       -0.688568        0.787972
H        2.371386       -0.129117       -0.915294
H        1.799430        1.066837        0.386475
N        0.374120       -0.445770       -0.025062
N       -0.441557        0.495821       -0.135474
10
  Step 30: 30.0 fs
C       -1.784764       -0.102270        0.060057
H       -2.402035        0.347244        1.036045
H       -2.414311        0.258782       -0.760707
H       -1.669682       -1.094032        0.261547
C        1.873356        0.058270        0.050648
H        2.233797       -0.667172        0.773561
H        2.327909       -0.103626       -0.843073
H        1.779893        1.040167        0.388675
N        0.364143       -0.441566       -0.023288
N       -0.429630        0.495041       -0.133315
10
  Step 31: 31.0 fs
C       -1.777698       -0.104512        0.056195
H       -2.358100        0.341743        1.021975
H       -2.407320        0.232028       -0.747525
H       -1.716851       -1.090338        0.270940
C        1.865954        0.055562        0.045125
H        2.233298       -0.643879        0.763532
H        2.299007       -0.080051       -0.800490
H        1.765542        1.032375        0.396204
N        0.355342       -0.437150       -0.021538
N       -0.417661        0.494112       -0.130520
10
  Step 32: 32.0 fs
C       -1.772170       -0.102824        0.053929
H       -2.298000        0.332608        0.990548
H       -2.404475        0.202130       -0.742613
H       -1.762135       -1.122494        0.280040
C        1.854044        0.051962        0.043477
H        2.240108       -0.623629        0.761840
H        2.299522       -0.062913       -0.817622
H        1.756198        1.043696        0.408965
N        0.348469       -0.433246       -0.019774
N       -0.406443        0.493465       -0.127239
10
  Step 33: 33.0 fs
C       -1.767703       -0.098828        0.053362
H       -2.227533        0.323873        0.948531
H       -2.408162        0.172341       -0.749654
H       -1.803820       -1.175103        0.285751
C        1.838078        0.048164        0.045026
H        2.255080       -0.609527        0.769963
H        2.324286       -0.050256       -0.884602
H        1.752118        1.067398        0.424109
N        0.344238       -0.430552       -0.017949
N       -0.396730        0.493530       -0.123641
10
  Step 34: 34.0 fs
C       -1.763832       -0.094672        0.053746
H       -2.156054        0.322201        0.909377
H       -2.417832        0.144489       -0.768250
H       -1.839562       -1.228130        0.284654
C        1.819809        0.044631        0.047336
H        2.277212       -0.601385        0.785446
H        2.354895       -0.038064       -0.965630
H        1.753457        1.094013        0.437581
N        0.343206       -0.429623       -0.016020
N       -0.389125        0.494630       -0.119897
10
  Step 35: 35.0 fs
C       -1.760179       -0.092155        0.053338
H       -2.095087        0.336440        0.892120
H       -2.429960        0.119248       -0.793519
H       -1.866979       -1.267224        0.275466
C        1.800875        0.041690        0.048964
H        2.303385       -0.596173        0.802539
H        2.377458       -0.024781       -1.033955
H        1.759757        1.115266        0.445787
N        0.345660       -0.430758       -0.013973
N       -0.383987        0.496875       -0.116171
10
  Step 36: 36.0 fs
C       -1.756760       -0.092271        0.050673
H       -2.051947        0.371872        0.908711
H       -2.440040        0.097200       -0.818612
H       -1.884262       -1.284568        0.258869
C        1.782528        0.039522        0.049581
H        2.329349       -0.590146        0.814787
H        2.385083       -0.010624       -1.076604
H        1.769902        1.125657        0.446363
N        0.351547       -0.433932       -0.011833
N       -0.381363        0.500091       -0.112603
10
  Step 37: 37.0 fs
C       -1.754160       -0.094773        0.046040
H       -2.025388        0.422835        0.950107
H       -2.444604        0.079421       -0.837746
H       -1.890239       -1.277197        0.236676
C        1.765752        0.038193        0.049275
H        2.351136       -0.580667        0.817285
H        2.375010        0.003560       -1.088638
H        1.782284        1.122897        0.438401
N        0.360466       -0.438815       -0.009648
N       -0.381019        0.503836       -0.109302
10
  Step 38: 38.0 fs
C       -1.752995       -0.098569        0.040791
H       -2.010740        0.476803        0.995919
H       -2.442020        0.067381       -0.847609
H       -1.884407       -1.246374        0.211385
C        1.751327        0.037672        0.048160
H        2.365960       -0.566799        0.807535
H        2.346706        0.016722       -1.069395
H        1.795068        1.107904        0.422446
N        0.371723       -0.444859       -0.007480
N       -0.382521        0.507478       -0.106319
10
  Step 39: 39.0 fs
C       -1.753460       -0.102345        0.036051
H       -2.004760        0.522827        1.029919
H       -2.432555        0.062690       -0.847578
H       -1.867124       -1.198312        0.186140
C        1.739805        0.037828        0.046268
H        2.372716       -0.549333        0.785658
H        2.301455        0.027723       -1.021625
H        1.806430        1.084894        0.400546
N        0.384415       -0.451427       -0.005379
N       -0.385344        0.510322       -0.103656
10
  Step 40: 40.0 fs
C       -1.755322       -0.104604        0.032410
H       -2.005892        0.554107        1.043522
H       -2.418252        0.066816       -0.839543
H       -1.839859       -1.146081        0.164759
C        1.731381        0.038435        0.043694
H        2.372265       -0.530669        0.754358
H        2.243182        0.035338       -0.953094
H        1.814837        1.061157        0.376158
N        0.397542       -0.457905       -0.003373
N       -0.388943        0.511728       -0.101281
10
  Step 41: 41.0 fs
C       -1.758084       -0.103580        0.030131
H       -2.013382        0.567077        1.033551
H       -2.402493        0.080779       -0.827378
H       -1.804951       -1.109460        0.151277
C        1.725654        0.039236        0.041030
H        2.367525       -0.514568        0.718702
H        2.180591        0.038376       -0.881044
H        1.819240        1.045874        0.353645
N        0.410090       -0.463777       -0.001461
N       -0.392793        0.511185       -0.099143
10
  Step 42: 42.0 fs
C       -1.761218       -0.097912        0.029349
H       -2.026844        0.560655        1.000586
H       -2.389193        0.104749       -0.816012
H       -1.764587       -1.105884        0.148334
C        1.721471        0.040171        0.039921
H        2.363182       -0.505611        0.685334
H        2.128898        0.035961       -0.836573
H        1.819127        1.046552        0.336824
N        0.421125       -0.468661        0.000389
N       -0.396409        0.508372       -0.097196
10
  Step 43: 43.0 fs
C       -1.764303       -0.087960        0.030130
H       -2.046270        0.536421        0.948932
H       -2.381517        0.137668       -0.809980
H       -1.720580       -1.134560        0.155183
C        1.717601        0.041582        0.042316
H        2.364267       -0.507848        0.660461
H        2.102877        0.027800       -0.851869
H        1.814391        1.064797        0.327222
N        0.429858       -0.472320        0.002235
N       -0.399367        0.503169       -0.095391
10
  Step 44: 44.0 fs
C       -1.766949       -0.075802        0.032124
H       -2.072634        0.499799        0.888251
H       -2.380336        0.177001       -0.811564
H       -1.676060       -1.177096        0.168119
C        1.714310        0.044084        0.047615
H        2.373704       -0.522788        0.647151
H        2.100386        0.014472       -0.923043
H        1.805263        1.095417        0.323731
N        0.435695       -0.474665        0.004149
N       -0.401350        0.495649       -0.093673
10
  Step 45: 45.0 fs
C       -1.768680       -0.063960        0.034106
H       -2.109195        0.461391        0.835653
H       -2.383684        0.218941       -0.819973
H       -1.635491       -1.213866        0.182889
C        1.713022        0.048125        0.053166
H        2.390288       -0.547881        0.643754
H        2.107540       -0.002108       -1.015309
H        1.792371        1.129386        0.323780
N        0.438312       -0.475739        0.006193
N       -0.402206        0.486060       -0.091964
10
  Step 46: 46.0 fs
C       -1.768940       -0.054490        0.034246
H       -2.161575        0.434239        0.811812
H       -2.387743        0.259150       -0.832220
H       -1.603133       -1.232639        0.196116
C        1.714883        0.053738        0.057092
H        2.409270       -0.577227        0.645224
H        2.114262       -0.019449       -1.099332
H        1.776813        1.157912        0.324789
N        0.437710       -0.475696        0.008415
N       -0.401971        0.474811       -0.090157
10
  Step 47: 47.0 fs
C       -1.767569       -0.048208        0.031635
H       -2.231552        0.423398        0.824795
H       -2.388612        0.293776       -0.844935
H       -1.582116       -1.228411        0.205380
C        1.720383        0.060628        0.058669
H        2.425124       -0.604068        0.646160
H        2.116204       -0.035411       -1.159633
H        1.760062        1.174839        0.324933
N        0.434203       -0.474795        0.010860
N       -0.400841        0.462470       -0.088140
10
  Step 48: 48.0 fs
C       -1.765348       -0.044543        0.027146
H       -2.310219        0.421549        0.861287
H       -2.383398        0.320009       -0.855345
H       -1.574376       -1.201347        0.209016
C        1.729452        0.068311        0.057687
H        2.433842       -0.622949        0.642818
H        2.112097       -0.048331       -1.189423
H        1.743795        1.177478        0.323342
N        0.428363       -0.473399        0.013591
N       -0.399105        0.449746       -0.085824
10
  Step 49: 49.0 fs
C       -1.763504       -0.042461        0.022214
H       -2.383804        0.419137        0.901746
H       -2.370673        0.336245       -0.861658
H       -1.580742       -1.155976        0.206190
C        1.741635        0.076184        0.054050
H        2.433670       -0.630563        0.633612
H        2.102018       -0.056868       -1.186265
H        1.729689        1.166749        0.320077
N        0.420945       -0.471973        0.016685
N       -0.397116        0.437465       -0.083159
10
  Step 50: 50.0 fs
C       -1.763011       -0.040948        0.017813
H       -2.441714        0.410996        0.932668
H       -2.350645        0.342121       -0.863447
H       -1.600810       -1.101791        0.197177
C        1.756215        0.083572        0.047652
H        2.425221       -0.626057        0.619117
H        2.086858       -0.059921       -1.150658
H        1.719199        1.147070        0.316095
N        0.412801       -0.471066        0.020233
N       -0.395262        0.426506       -0.080134
10
  Step 51: 51.0 fs
C       -1.764456       -0.038839        0.014416
H       -2.478043        0.395793        0.947198
H       -2.325168        0.338610       -0.862086
H       -1.632687       -1.054369        0.183648
C        1.772283        0.089833        0.038465
H        2.411363       -0.611165        0.602006
H        2.068439       -0.056767       -1.086801
H        1.713279        1.125602        0.313123
N        0.404775       -0.471250        0.024321
N       -0.393942        0.417699       -0.076760
10
  Step 52: 52.0 fs
C       -1.768083       -0.034875        0.012253
H       -2.490319        0.374317        0.942686
H       -2.297563        0.328084       -0.860996
H       -1.673409       -1.032674        0.168159
C        1.788730        0.094554        0.026891
H        2.396946       -0.590221        0.586923
H        2.050314       -0.047631       -1.006174
H        1.712252        1.110488        0.313279
N        0.397604       -0.473015        0.029017
N       -0.393512        0.411687       -0.073051
10
  Step 53: 53.0 fs
C       -1.773762       -0.028562        0.011577
H       -2.478585        0.348664        0.919274
H       -2.272061        0.314086       -0.865316
H       -1.720516       -1.047575        0.152072
C        1.804174        0.097887        0.014478
H        2.387971       -0.569415        0.579783
H        2.039193       -0.034851       -0.934259
H        1.715970        1.107247        0.318057
N        0.391833       -0.476653        0.034341
N       -0.394219        0.408802       -0.069012
10
  Step 54: 54.0 fs
C       -1.781056       -0.020988        0.012601
H       -2.445642        0.322226        0.880189
H       -2.252398        0.300286       -0.879975
H       -1.772382       -1.091236        0.134134
C        1.817099        0.100588        0.004274
H        2.389337       -0.554244        0.585413
H        2.044899       -0.023318       -0.911172
H        1.724235        1.116106        0.327270
N        0.387777       -0.482177        0.040250
N       -0.396145        0.409001       -0.064625
10
  Step 55: 55.0 fs
C       -1.789360       -0.014152        0.014894
H       -2.398639        0.300204        0.833815
H       -2.240130        0.288963       -0.906432
H       -1.826700       -1.144630        0.112419
C        1.826678        0.103309       -0.001670
H        2.402426       -0.546524        0.604564
H        2.072640       -0.015956       -0.958938
H        1.736933        1.132777        0.338968
N        0.385519       -0.489289        0.046629
N       -0.399186        0.411882       -0.059854
10
  Step 56: 56.0 fs
C       -1.797789       -0.009902        0.016788
H       -2.351249        0.290351        0.796798
H       -2.234133        0.280468       -0.940751
H       -1.880310       -1.190796        0.086423
C        1.833496        0.105951       -0.005008
H        2.424546       -0.543657        0.632904
H        2.115214       -0.009686       -1.049329
H        1.753795        1.151362        0.350334
N        0.384937       -0.497435        0.053316
N       -0.403076        0.416771       -0.054651
10
  Step 57: 57.0 fs
C       -1.805227       -0.009577        0.015768
H       -2.320952        0.301755        0.791192
H       -2.231992        0.274189       -0.975409
H       -1.930143       -1.219203        0.057219