10
  Step 0: 0.0 fs
C       -1.803709       -0.067741        0.000064
H       -2.311503        0.330689        0.889259
H       -2.311361        0.329938       -0.889480
H       -1.816433       -1.165813        0.000690
C        1.803673        0.067713        0.000029
H        2.310914       -0.329731        0.890007
H        2.312166       -0.330834       -0.888668
H        1.816237        1.165799       -0.000370
N        0.410955       -0.460076       -0.000155
N       -0.410927        0.460092       -0.000131
10
  Step 1: 1.0 fs
C       -1.791847       -0.071381        0.000935
H       -2.364797        0.340971        0.855476
H       -2.367367        0.348229       -0.924857
H       -1.806374       -1.111110        0.004452
C        1.802622        0.074976        0.003756
H        2.343017       -0.294521        0.877920
H        2.299979       -0.395649       -0.956525
H        1.821180        1.222181        0.029047
N        0.401422       -0.471266       -0.001554
N       -0.405305        0.460256        0.005672
10
  Step 2: 2.0 fs
C       -1.781218       -0.072615        0.000822
H       -2.413916        0.350322        0.821549
H       -2.412462        0.359918       -0.948451
H       -1.796625       -1.078140        0.007932
C        1.802010        0.082417        0.006107
H        2.375020       -0.262158        0.867220
H        2.281327       -0.449557       -1.008068
H        1.825289        1.264538        0.054931
N        0.392350       -0.482191       -0.002793
N       -0.399994        0.460477        0.011499
10
  Step 3: 3.0 fs
C       -1.772691       -0.069726       -0.000672
H       -2.454832        0.357750        0.787444
H       -2.440065        0.361740       -0.955677
H       -1.787597       -1.083570        0.010994
C        1.801936        0.090016        0.006484
H        2.406340       -0.234747        0.858259
H        2.254699       -0.486008       -1.035530
H        1.827608        1.285281        0.074425
N        0.384143       -0.492601       -0.003733
N       -0.395253        0.460781        0.017369
10
  Step 4: 4.0 fs
C       -1.766843       -0.062995       -0.003666
H       -2.484483        0.362621        0.754138
H       -2.446756        0.352678       -0.946309
H       -1.779465       -1.122799        0.013657
C        1.802401        0.097553        0.004781
H        2.435634       -0.213539        0.850263
H        2.220992       -0.501480       -1.036353
H        1.827286        1.281959        0.085413
N        0.377116       -0.502244       -0.004254
N       -0.391264        0.461148        0.023292
10
  Step 5: 5.0 fs
C       -1.763955       -0.054256       -0.008142
H       -2.501318        0.364900        0.723926
H       -2.431533        0.333308       -0.923042
H       -1.772217       -1.174800        0.015898
C        1.803386        0.104613        0.001171
H        2.461000       -0.199093        0.841830
H        2.182320       -0.494460       -1.011225
H        1.823662        1.256415        0.086524
N        0.371472       -0.510870       -0.004248
N       -0.388125        0.461501        0.029272
10
  Step 6: 6.0 fs
C       -1.763928       -0.045438       -0.013903
H       -2.505536        0.365187        0.700164
H       -2.396099        0.305736       -0.891660
H       -1.765936       -1.219366        0.017697
C        1.804823        0.110578       -0.003966
H        2.480529       -0.191481        0.831669
H        2.141854       -0.465523       -0.964117
H        1.816315        1.215080        0.077249
N        0.367305       -0.518235       -0.003613
N       -0.385875        0.461713        0.035307
10
  Step 7: 7.0 fs
C       -1.766163       -0.038009       -0.020407
H       -2.498973        0.364630        0.686586
H       -2.346105        0.274065       -0.862476
H       -1.760853       -1.244132        0.019109
C        1.806481        0.114672       -0.009912
H        2.492803       -0.190384        0.819144
H        2.104449       -0.418856       -0.904548
H        1.805013        1.170114        0.058182
N        0.364615       -0.524124       -0.002261
N       -0.384504        0.461628        0.041386
10
  Step 8: 8.0 fs
C       -1.769532       -0.033068       -0.026541
H       -2.484517        0.364663        0.686115
H       -2.292230        0.244740       -0.851779
H       -1.757251       -1.243687        0.020281
C        1.807845        0.116268       -0.015258
H        2.497249       -0.195107        0.804484
H        2.077673       -0.365111       -0.851896
H        1.789580        1.138523        0.031065
N        0.363336       -0.528370       -0.000132
N       -0.383965        0.461093        0.047492
10
  Step 9: 9.0 fs
C       -1.772789       -0.031315       -0.030877
H       -2.465089        0.366567        0.699342
H       -2.246647        0.224633       -0.877275
H       -1.755360       -1.217689        0.021469
C        1.808091        0.115511       -0.017780
H        2.494310       -0.204680        0.788750
H        2.071522       -0.321528       -0.835993
H        1.769801        1.134991       -0.001785
N        0.363389       -0.530872        0.002785
N       -0.384175        0.459986        0.053603
10
  Step 10: 10.0 fs
C       -1.775488       -0.032632       -0.032919
H       -2.442797        0.371071        0.723628
H       -2.213235        0.215990       -0.942443
H       -1.755277       -1.170540        0.023088
C        1.806561        0.113196       -0.016117
H        2.485569       -0.218118        0.773827
H        2.091879       -0.299270       -0.876529
H        1.745919        1.160748       -0.038081
N        0.364725       -0.531598        0.006446
N       -0.385019        0.458240        0.059697
10
  Step 11: 11.0 fs
C       -1.778131       -0.035868       -0.033767
H       -2.418793        0.378261        0.753744
H       -2.185893        0.215285       -1.029330
H       -1.756963       -1.112648        0.025749
C        1.803408        0.109798       -0.012027
H        2.473698       -0.234720        0.762337
H        2.132274       -0.290532       -0.956534
H        1.719394        1.202438       -0.075195
N        0.367323       -0.530588        0.010764
N       -0.386367        0.455848        0.065751
10
  Step 12: 12.0 fs
C       -1.781297       -0.039105       -0.034925
H       -2.393698        0.387747        0.783493
H       -2.158022        0.217884       -1.114115
H       -1.760286       -1.062071        0.030227
C        1.799168        0.105747       -0.008588
H        2.461722       -0.253986        0.756713
H        2.180320       -0.282494       -1.043353
H        1.692682        1.242708       -0.109868
N        0.371165       -0.527954        0.015620
N       -0.388108        0.452858        0.071729
10
  Step 13: 13.0 fs
C       -1.785186       -0.040195       -0.037363
H       -2.368200        0.398920        0.807292
H       -2.127006        0.220726       -1.179828
H       -1.765148       -1.040921        0.037387
C        1.794243        0.101638       -0.007878
H        2.451694       -0.275120        0.757819
H        2.226360       -0.268726       -1.114382
H        1.668335        1.268617       -0.138869
N        0.376210       -0.523872        0.020874
N       -0.390157        0.449366        0.077576
10
  Step 14: 14.0 fs
C       -1.789672       -0.038041       -0.041459
H       -2.343493        0.411274        0.821175
H       -2.093093        0.222261       -1.217370
H       -1.771786       -1.060294        0.047518
C        1.788964        0.097940       -0.010741
H        2.443747       -0.296520        0.764198
H        2.264558       -0.247941       -1.158615
H        1.648413        1.273419       -0.159633
N        0.382377       -0.518576        0.026382
N       -0.392440        0.445485        0.083226
10
  Step 15: 15.0 fs
C       -1.794432       -0.033550       -0.047172
H       -2.321379        0.424610        0.823139
H       -2.057894        0.221936       -1.223115
H       -1.780843       -1.108664        0.059387
C        1.783716        0.094847       -0.017238
H        2.436303       -0.315798        0.772536
H        2.291479       -0.221131       -1.171710
H        1.634294        1.255559       -0.170450
N        0.389531       -0.512339        0.031998
N       -0.394876        0.441338        0.088612
10
  Step 16: 16.0 fs
C       -1.799053       -0.028600       -0.054190
H       -2.304133        0.439071        0.813094
H       -2.023728        0.219939       -1.197680
H       -1.792861       -1.163862        0.070798
C        1.778934        0.092275       -0.027015
H        2.427194       -0.330405        0.779057
H        2.305130       -0.190298       -1.153025
H        1.626638        1.218067       -0.170475
N        0.397476       -0.505470        0.037581
N       -0.397373        0.437037        0.093681
10
  Step 17: 17.0 fs
C       -1.803091       -0.024787       -0.061957
H       -2.294192        0.455080        0.792566
H       -1.993564        0.217264       -1.146687
H       -1.807914       -1.208080        0.079821
C        1.775029        0.089850       -0.039465
H        2.414720       -0.338299        0.780825
H        2.304804       -0.158141       -1.105017
H        1.625201        1.169037       -0.159727
N        0.405958       -0.498308        0.042993
N       -0.399826        0.432691        0.098396
10
  Step 18: 18.0 fs
C       -1.806076       -0.023193       -0.069439
H       -2.293741        0.473213        0.764204
H       -1.971136        0.216280       -1.083477
H       -1.825715       -1.231246        0.085235
C        1.772272        0.086884       -0.053675
H        2.398291       -0.338468        0.776551
H        2.291900       -0.128317       -1.034675
H        1.628576        1.122491       -0.139008
N        0.414677       -0.491201        0.048094
N       -0.402121        0.428408        0.102740
10
  Step 19: 19.0 fs
C       -1.807537       -0.024598       -0.074846
H       -2.304227        0.493945        0.731083
H       -1.960890        0.221525       -1.031545
H       -1.845820       -1.229085        0.086394
C        1.770538        0.082617       -0.068160
H        2.378659       -0.331246        0.766925
H        2.272241       -0.106011       -0.957512
H        1.634452        1.096102       -0.109429
N        0.423305       -0.484485        0.052745
N       -0.404142        0.424302        0.106710
10
  Step 20: 20.0 fs
C       -1.807138       -0.029484       -0.076186
H       -2.325891        0.517268        0.695921
H       -1.966512        0.238545       -1.016964
H       -1.867748       -1.201698        0.083171
C        1.768899        0.077037       -0.080568
H        2.357924       -0.318454        0.754614
H        2.259182       -0.098184       -0.901661
H        1.641103        1.101562       -0.071790
N        0.431516       -0.478464        0.056804
N       -0.405793        0.420497        0.110304
10
  Step 21: 21.0 fs
C       -1.804991       -0.037483       -0.073187
H       -2.357426        0.542332        0.660434
H       -1.987453        0.268061       -1.045093
H       -1.891093       -1.153847        0.076134
C        1.765868        0.071473       -0.088406
H        2.339315       -0.303233        0.743843
H        2.269383       -0.110989       -0.898065
H        1.648936        1.134519       -0.027551
N        0.439006       -0.473383        0.060148
N       -0.407026        0.417121        0.113524
10
  Step 22: 22.0 fs
C       -1.801722       -0.046909       -0.067740
H       -2.395819        0.567164        0.625010
H       -2.017895        0.303036       -1.095209
H       -1.915861       -1.097077        0.066848
C        1.761206        0.067566       -0.091613
H        2.326533       -0.289331        0.739247
H        2.303094       -0.142896       -0.947418
H        1.659603        1.179147        0.019656
N        0.445495       -0.469429        0.062689
N       -0.407858        0.414286        0.116375
10
  Step 23: 23.0 fs
C       -1.798069       -0.055110       -0.062001
H       -2.436730        0.588930        0.588974
H       -2.050578        0.334533       -1.143537
H       -1.943151       -1.051457        0.057904
C        1.756344        0.066189       -0.092482
H        2.322380       -0.279891        0.743601
H        2.342301       -0.184641       -1.019750
H        1.674175        1.219756        0.064830
N        0.450738       -0.466723        0.064385
N       -0.408376        0.412073        0.118862
10
  Step 24: 24.0 fs
C       -1.794556       -0.059435       -0.057343
H       -2.475427        0.604764        0.551737
H       -2.079740        0.356315       -1.175807
H       -1.975305       -1.039314        0.051940
C        1.752791        0.067572       -0.092831
H        2.327281       -0.276398        0.755764
H        2.370969       -0.226982       -1.087498
H        1.692601        1.246033        0.103260
N        0.454563       -0.465317        0.065224
N       -0.408710        0.410511        0.120998
10
  Step 25: 25.0 fs
C       -1.791640       -0.058918       -0.054372
H       -2.507896        0.612770        0.513762
H       -2.101468        0.365146       -1.186021
H       -2.013080       -1.066671        0.049536
C        1.751553        0.071565       -0.093254
H        2.339097       -0.278634        0.770995
H        2.381299       -0.263800       -1.135494
H        1.714061        1.253030        0.131382
N        0.456877       -0.465198        0.065215
N       -0.408980        0.409591        0.122798
10
  Step 26: 26.0 fs
C       -1.789966       -0.054827       -0.053210
H       -2.531620        0.612553        0.476933
H       -2.113244        0.359854       -1.173217
H       -2.052632       -1.116549        0.049003
C        1.753219        0.077763       -0.093662
H        2.354371       -0.285452        0.783299
H        2.370870       -0.291389       -1.156944
H        1.737435        1.239872        0.146894
N        0.457660       -0.466286        0.064390
N       -0.409254        0.409272        0.124288
10
  Step 27: 27.0 fs
C       -1.790141       -0.049158       -0.053808
H       -2.545948        0.605264        0.444424
H       -2.113676        0.340693       -1.139874
H       -2.087948       -1.166368        0.048530
C        1.758032        0.085518       -0.093808
H        2.369813       -0.295562        0.787788
H        2.340087       -0.307467       -1.149602
H        1.761563        1.209386        0.148820
N        0.456949       -0.468435        0.062802
N       -0.409545        0.409484        0.125498
10
  Step 28: 28.0 fs
C       -1.792411       -0.043543       -0.055952
H       -2.552154        0.593381        0.420241
H       -2.102744        0.309410       -1.092319
H       -2.114261       -1.200683        0.047280
C        1.765895        0.093882       -0.093514
H        2.383113       -0.307881        0.781732
H        2.291305       -0.310854       -1.114472
H        1.785400        1.168775        0.137751
N        0.454831       -0.471432        0.060530
N       -0.409828        0.410131        0.126467
10
  Step 29: 29.0 fs
C       -1.796555       -0.039203       -0.059051
H       -2.553054        0.580321        0.408498
H       -2.082537        0.269846       -1.042471
H       -2.128838       -1.211975        0.045263
C        1.776336        0.101555       -0.092635
H        2.393221       -0.321638        0.764804
H        2.229191       -0.301980       -1.056793
H        1.808179        1.130795        0.116209
N        0.451435       -0.475007        0.057682
N       -0.410065        0.411096        0.127238
10
  Step 30: 30.0 fs
C       -1.801951       -0.037111       -0.061872
H       -2.551926        0.569574        0.412210
H       -2.057881        0.228352       -1.009396
H       -2.130542       -1.198206        0.043043
C        1.788411        0.107176       -0.090714
H        2.400379       -0.336373        0.738926
H        2.162036       -0.284700       -0.989697
H        1.829565        1.112173        0.088244
N        0.446919       -0.478851        0.054389
N       -0.410226        0.412256        0.127861
10
  Step 31: 31.0 fs
C       -1.807895       -0.037812       -0.062870
H       -2.550802        0.563427        0.431755
H       -2.034718        0.191821       -1.013736
H       -2.119517       -1.161751        0.041670
C        1.800689        0.110279       -0.086394
H        2.406147       -0.352011        0.707960
H        2.102458       -0.268733       -0.938795
H        1.849505        1.124992        0.057406
N        0.441462       -0.482648        0.050805
N       -0.410301        0.413496        0.128388
10
  Step 32: 32.0 fs
C       -1.814061       -0.040922       -0.061579
H       -2.549425        0.562159        0.464088
H       -2.015559        0.163093       -1.060398
H       -2.097312       -1.109948        0.042739
C        1.811717        0.112022       -0.077735
H        2.413311       -0.369025        0.677089
H        2.062696       -0.267297       -0.935860
H        1.867762        1.166144        0.024964
N        0.435260       -0.486113        0.047097
N       -0.410307        0.414723        0.128870
10
  Step 33: 33.0 fs
C       -1.820460       -0.044931       -0.059274
H       -2.545788        0.564311        0.503539
H       -1.998798        0.140340       -1.131419
H       -2.067448       -1.057165        0.048425
C        1.820957        0.113806       -0.064881
H        2.425492       -0.388473        0.651851
H        2.043762       -0.282803       -0.987262
H        1.883792        1.219792       -0.008762
N        0.428533       -0.489023        0.043433
N       -0.410300        0.415877        0.129349
10
  Step 34: 34.0 fs
C       -1.826942       -0.047615       -0.057688
H       -2.537614        0.567645        0.543675
H       -1.982926        0.121122       -1.202696
H       -2.035308       -1.024923        0.061293
C        1.828681        0.115961       -0.050749
H        2.445564       -0.411142        0.636000
H        2.037564       -0.303340       -1.065145
H        1.897065        1.268639       -0.042467
N        0.421548       -0.491225        0.039956
N       -0.410377        0.416949        0.129845
10
  Step 35: 35.0 fs
C       -1.833195       -0.047109       -0.057972
H       -2.523616        0.570080        0.578954
H       -1.968162        0.104080       -1.257037
H       -2.005383       -1.031968        0.083345
C        1.835216        0.118328       -0.038101
H        2.473594       -0.436005        0.629447
H        2.037541       -0.317569       -1.140025
H        1.907286        1.300449       -0.073894
N        0.414608       -0.492636        0.036764
N       -0.410653        0.417979        0.130349
10
  Step 36: 36.0 fs
C       -1.839080       -0.043479       -0.060501
H       -2.504020        0.570303        0.605579
H       -1.955677        0.088674       -1.285143
H       -1.977840       -1.075987        0.113831
C        1.840855        0.120615       -0.028318
H        2.506274       -0.459699        0.628531
H        2.040553       -0.320207       -1.194961
H        1.914400        1.308866       -0.100590
N        0.408012       -0.493231        0.033918
N       -0.411219        0.419054        0.130833
10
  Step 37: 37.0 fs
C       -1.844526       -0.038549       -0.065067
H       -2.480550        0.568072        0.621758
H       -1.946874        0.074833       -1.283222
H       -1.950593       -1.135438        0.148673
C        1.845911        0.122396       -0.021859
H        2.538506       -0.477784        0.628406
H        2.045207       -0.309947       -1.222241
H        1.918525        1.292525       -0.120387
N        0.402023       -0.493027        0.031451
N       -0.412129        0.420273        0.131266
10
  Step 38: 38.0 fs
C       -1.849272       -0.034267       -0.071184
H       -2.456126        0.564186        0.627635
H       -1.943157        0.062779       -1.251780
H       -1.922873       -1.188533        0.182924
C        1.850634        0.123129       -0.018795
H        2.565526       -0.486526        0.625260
H        2.050816       -0.287464       -1.219130
H        1.919948        1.254721       -0.131612
N        0.396851       -0.492074        0.029381
N       -0.413408        0.421723        0.131611
10
  Step 39: 39.0 fs
C       -1.852887       -0.031958       -0.078155
H       -2.434339        0.560253        0.624990
H       -1.945930        0.053001       -1.196453
H       -1.895463       -1.221847        0.212700
C        1.855152        0.122090       -0.019026
H        2.584033       -0.483859        0.617203
H        2.057042       -0.254645       -1.186093
H        1.919138        1.204188       -0.133248
N        0.392651       -0.490440        0.027718
N       -0.415044        0.423467        0.131832
10
  Step 40: 40.0 fs
C       -1.854888       -0.032394       -0.084816
H       -2.418743        0.558221        0.616639
H       -1.956753        0.046320       -1.130721
H       -1.869765       -1.229186        0.235445
C        1.859413        0.118356       -0.022254
H        2.592738       -0.469781        0.604510
H        2.063925       -0.214685       -1.127242
H        1.916718        1.155807       -0.125006
N        0.389522       -0.488203        0.026455
N       -0.416992        0.425552        0.131888
10
  Step 41: 41.0 fs
C       -1.854821       -0.035962       -0.089228
H       -2.411983        0.559682        0.605478
H       -1.977695        0.044067       -1.078258
H       -1.847273       -1.209211        0.249695
C        1.863131        0.111092       -0.027773
H        2.592615       -0.446486        0.589654
H        2.072371       -0.172736       -1.053084
H        1.913200        1.127868       -0.106965
N        0.387517       -0.485459        0.025569
N       -0.419175        0.428024        0.131720
10
  Step 42: 42.0 fs
C       -1.852334       -0.042656       -0.089265
H       -2.415070        0.565180        0.593518
H       -2.011184        0.047719       -1.064891
H       -1.829344       -1.164547        0.255092
C        1.865707        0.100483       -0.034119
H        2.586974       -0.418304        0.577220
H        2.085330       -0.136590       -0.985417
H        1.908472        1.131663       -0.078685
N        0.386650       -0.482315        0.025005
N       -0.421489        0.430932        0.131254
10
  Step 43: 43.0 fs
C       -1.847454       -0.051805       -0.084652
H       -2.427202        0.573980        0.581494
H       -2.057133        0.057131       -1.094710
H       -1.817016       -1.103030        0.252966
C        1.866187        0.088369       -0.039019
H        2.580979       -0.391068        0.573276
H        2.108698       -0.115070       -0.956833
H        1.901717        1.161613       -0.039631
N        0.386906       -0.478890        0.024679
N       -0.423809        0.434325        0.130407
10
  Step 44: 44.0 fs
C       -1.840827       -0.061695       -0.077485
H       -2.445959        0.584135        0.568911
H       -2.110042        0.069404       -1.145295
H       -1.810771       -1.040988        0.247541
C        1.863774        0.077041       -0.041099
H        2.579485       -0.370221        0.583154
H        2.146783       -0.111205       -0.986380
H        1.892154        1.200771        0.008849
N        0.388246       -0.475297        0.024492
N       -0.425996        0.438239        0.129097
10
  Step 45: 45.0 fs
C       -1.833422       -0.069632       -0.070334
H       -2.467870        0.592926        0.554569
H       -2.162015        0.080631       -1.191588
H       -1.810407       -1.004433        0.246514
C        1.858738        0.067743       -0.041680
H        2.583858       -0.358546        0.608201
H        2.194480       -0.118827       -1.054794
H        1.879585        1.232831        0.063135
N        0.390591       -0.471634        0.024355
N       -0.427923        0.442673        0.127257
10
  Step 46: 46.0 fs
C       -1.826100       -0.073250       -0.064918
H       -2.489346        0.597729        0.537536
H       -2.206432        0.087756       -1.218597
H       -1.815545       -1.015940        0.256960
C        1.852192        0.060794       -0.042699
H        2.590463       -0.355423        0.644165
H        2.241671       -0.130044       -1.128999
H        1.864349        1.247313        0.118595
N        0.393824       -0.467965        0.024190
N       -0.429484        0.447570        0.124833
10
  Step 47: 47.0 fs
C       -1.819444       -0.072668       -0.061583
H       -2.507571        0.596934        0.517987
H       -2.238770        0.089023       -1.220140
H       -1.826126       -1.070359        0.277093
C        1.845307        0.056120       -0.044911
H        2.592832       -0.358399        0.683215
H        2.280656       -0.139925       -1.186613
H        1.847114        1.239493        0.170747
N        0.397786       -0.464324        0.023929
N       -0.430584        0.452805        0.121785
10
  Step 48: 48.0 fs
C       -1.813852       -0.070012       -0.059778
H       -2.520927        0.590283        0.497447
H       -2.256203        0.083699       -1.195488
H       -1.841423       -1.140683        0.298218
C        1.838934        0.053490       -0.048195
H        2.585317       -0.365201        0.717641
H        2.307156       -0.145982       -1.216642
H        1.828750        1.209225        0.215858
N        0.402272       -0.460721        0.023512
N       -0.431128        0.458207        0.118090
10
  Step 49: 49.0 fs
C       -1.809569       -0.067321       -0.058854
H       -2.529098        0.578800        0.478639
H       -2.257420        0.071756       -1.147879
H       -1.859670       -1.202659        0.313068
C        1.833570        0.052515       -0.052140
H        2.564731       -0.374528        0.741807
H        2.319141       -0.147005       -1.214789
H        1.810257        1.160522        0.251318
N        0.407034       -0.457162        0.022882
N       -0.431024        0.463574        0.113742
10
  Step 50: 50.0 fs
C       -1.806598       -0.065895       -0.058178
H       -2.532936        0.564509        0.465051
H       -2.243132        0.053837       -1.085120
H       -1.878770       -1.242441        0.318155
C        1.829408        0.052579       -0.056375
H        2.530649       -0.386170        0.752810
H        2.316052       -0.142449       -1.180723
H        1.792660        1.101923        0.276186
N        0.411788       -0.453654        0.021984
N       -0.430191        0.468698        0.108752
10
  Step 51: 51.0 fs
C       -1.804599       -0.066508       -0.056805
H       -2.534027        0.549938        0.460184
H       -2.217240        0.031483       -1.021597
H       -1.896761       -1.253898        0.312675
C        1.826363        0.052762       -0.060644
H        2.485059       -0.400828        0.750464
H        2.298909       -0.132399       -1.117982
H        1.776798        1.046989        0.291962
N        0.416228       -0.450211        0.020763
N       -0.428568        0.473391        0.103146
10
  Step 52: 52.0 fs
C       -1.802888       -0.069581       -0.053219
H       -2.533896        0.537358        0.466410
H       -2.187658        0.007249       -0.979191
H       -1.911883       -1.235917        0.297534
C        1.824006        0.052051       -0.064574
H        2.431996       -0.420032        0.737346
H        2.271604       -0.118079       -1.036677
H        1.763176        1.012049        0.302594
N        0.420049       -0.446853        0.019155
N       -0.426121        0.477496        0.096966
10
  Step 53: 53.0 fs
C       -1.800806       -0.075105       -0.045927
H       -2.533115        0.527982        0.483796
H       -2.162913       -0.016096       -0.978895
H       -1.922593       -1.191737        0.275111
C        1.821343        0.050048       -0.067025
H        2.377033       -0.445963        0.718628
H        2.243480       -0.102818       -0.958688
H        1.752221        1.008374        0.312037
N        0.422986       -0.443597        0.017093
N       -0.422857        0.480899        0.090276
10
  Step 54: 54.0 fs
C       -1.798387       -0.082366       -0.035085
H       -2.531029        0.521765        0.509826
H       -2.144380       -0.036889       -1.021615
H       -1.927818       -1.130630        0.249628
C        1.816748        0.047577       -0.065615
H        2.326261       -0.480957        0.701076
H        2.230326       -0.092184       -0.918761
H        1.744967        1.034264        0.320765
N        0.424844       -0.440450        0.014500
N       -0.418834        0.483526        0.083167
10
  Step 55: 55.0 fs
C       -1.796204       -0.089701       -0.022779
H       -2.526280        0.517860        0.540302
H       -2.126666       -0.054264       -1.086201
H       -1.927711       -1.071413        0.227660
C        1.809034        0.046033       -0.058623
H        2.284703       -0.526362        0.690592
H        2.243190       -0.089606       -0.939893
H        1.742989        1.077315        0.326072
N        0.425521       -0.437413        0.011308
N       -0.414188        0.485351        0.075751
10
  Step 56: 56.0 fs
C       -1.794577       -0.094615       -0.011433
H       -2.517618        0.515245        0.570797
H       -2.105242       -0.067461       -1.148864
H       -1.924278       -1.042359        0.217260
C        1.798954        0.046154       -0.047566
H        2.254744       -0.580780        0.689121
H        2.273251       -0.091942       -1.002915
H        1.747508        1.122998        0.325261
N        0.424992       -0.434506        0.007469
N       -0.409160        0.486395        0.068155
10
  Step 57: 57.0 fs
C       -1.793479       -0.095274       -0.002603
H       -2.504546        0.513163        0.597815
H       -2.078974       -0.075992       -1.193828
H       -1.919446       -1.063908        0.223241