10
  Step 0: 0.0 fs
C       -1.803708       -0.067737        0.000068
H       -2.311498        0.330680        0.889266
H       -2.311360        0.329962       -0.889469
H       -1.816420       -1.165810        0.000667
C        1.803674        0.067712        0.000031
H        2.310882       -0.329666        0.890066
H        2.312190       -0.330881       -0.888634
H        1.816220        1.165799       -0.000424
N        0.410956       -0.460075       -0.000169
N       -0.410929        0.460086       -0.000125
10
  Step 1: 1.0 fs
C       -1.791666       -0.069518       -0.003149
H       -2.301313        0.366972        0.969280
H       -2.335976        0.287934       -0.899038
H       -1.891696       -1.102917       -0.035048
C        1.809181        0.065205        0.008763
H        2.306986       -0.314545        0.875552
H        2.338294       -0.346708       -0.938096
H        1.809950        1.198227       -0.002230
N        0.416417       -0.462275       -0.001697
N       -0.426119        0.459565       -0.001089
10
  Step 2: 2.0 fs
C       -1.780957       -0.069074       -0.005282
H       -2.284368        0.395883        1.031348
H       -2.358920        0.250704       -0.905268
H       -1.964033       -1.063720       -0.067528
C        1.814663        0.063449        0.015719
H        2.307893       -0.303266        0.868637
H        2.357330       -0.356724       -0.974026
H        1.804331        1.220838       -0.004097
N        0.421427       -0.464097       -0.003210
N       -0.440396        0.458571       -0.002172
10
  Step 3: 3.0 fs
C       -1.772383       -0.065307       -0.005874
H       -2.258975        0.413836        1.066686
H       -2.378523        0.223224       -0.906042
H       -2.032305       -1.062575       -0.094260
C        1.819909        0.063007        0.019825
H        2.316978       -0.298531        0.874582
H        2.365891       -0.358160       -0.989238
H        1.800037        1.227876       -0.005876
N        0.425633       -0.465253       -0.004694
N       -0.452908        0.456738       -0.003470
10
  Step 4: 4.0 fs
C       -1.766783       -0.059110       -0.004843
H       -2.225913        0.419565        1.072003
H       -2.393396        0.209487       -0.900470
H       -2.092752       -1.091959       -0.112626
C        1.824843        0.064017        0.020888
H        2.333860       -0.300225        0.892599
H        2.363031       -0.350295       -0.981130
H        1.797647        1.217810       -0.007335
N        0.428771       -0.465562       -0.006135
N       -0.462869        0.453841       -0.005060
10
  Step 5: 5.0 fs
C       -1.765072       -0.052272       -0.002330
H       -2.187284        0.413174        1.047537
H       -2.402548        0.211708       -0.888432
H       -2.138938       -1.133659       -0.120210
C        1.829579        0.066199        0.019498
H        2.354546       -0.305692        0.916221
H        2.349733       -0.334015       -0.950901
H        1.797555        1.193131       -0.008208
N        0.430661       -0.464942       -0.007516
N       -0.469606        0.449791       -0.007015
10
  Step 6: 6.0 fs
C       -1.767787       -0.046276        0.001377
H       -2.146558        0.396188        0.997459
H       -2.405644        0.230210       -0.870539
H       -2.165816       -1.172588       -0.116055
C        1.834200        0.068990        0.016753
H        2.373790       -0.311453        0.937273
H        2.329180       -0.312042       -0.904095
H        1.799876        1.160550       -0.008212
N        0.431214       -0.463410       -0.008824
N       -0.472637        0.444601       -0.009398
10
  Step 7: 7.0 fs
C       -1.774775       -0.042183        0.005634
H       -2.109423        0.372765        0.932654
H       -2.403278        0.263850       -0.848392
H       -2.171295       -1.199439       -0.100806
C        1.838486        0.071765        0.014112
H        2.387321       -0.314729        0.949484
H        2.307747       -0.289726       -0.852467
H        1.804384        1.130603       -0.007020
N        0.430444       -0.461075       -0.010049
N       -0.471756        0.438363       -0.012267
10
  Step 8: 8.0 fs
C       -1.785105       -0.040991        0.009024
H       -2.084757        0.351718        0.874975
H       -2.396942        0.310551       -0.824578
H       -2.155709       -1.208930       -0.076203
C        1.841816        0.074087        0.013338
H        2.392601       -0.313957        0.949630
H        2.295220       -0.275189       -0.814327
H        1.810581        1.115288       -0.004344
N        0.428499       -0.458151       -0.011181
N       -0.467088        0.431266       -0.015658
10
  Step 9: 9.0 fs
C       -1.797304       -0.043691        0.009491
H       -2.082788        0.345640        0.854348
H       -2.388609        0.367648       -0.802085
H       -2.121214       -1.198718       -0.044743
C        1.843470        0.075929        0.015847
H        2.388997       -0.308950        0.937766
H        2.300700       -0.275896       -0.806911
H        1.817982        1.122057       -0.000050
N        0.425660       -0.454964       -0.012211
N       -0.459104        0.423610       -0.019566
10
  Step 10: 10.0 fs
C       -1.810208       -0.050344        0.006290
H       -2.106411        0.360292        0.884240
H       -2.379996        0.431814       -0.783201
H       -2.071632       -1.170060       -0.009618
C        1.843315        0.077532        0.021441
H        2.377802       -0.300945        0.917219
H        2.324262       -0.291896       -0.831124
H        1.826365        1.148835        0.005638
N        0.422362       -0.451956       -0.013120
N       -0.448595        0.415844       -0.023935
10
  Step 11: 11.0 fs
C       -1.823485       -0.059225        0.001262
H       -2.146597        0.386764        0.945149
H       -2.371839        0.498616       -0.768334
H       -2.012612       -1.129967        0.025530
C        1.841858        0.079244        0.028257
H        2.362313       -0.292610        0.894482
H        2.356475       -0.315474       -0.870969
H        1.835623        1.185563        0.012190
N        0.419180       -0.449689       -0.013871
N       -0.436600        0.408575       -0.028667
10
  Step 12: 12.0 fs
C       -1.836987       -0.067511       -0.003313
H       -2.191562        0.412329        1.009421
H       -2.363775        0.562108       -0.755818
H       -1.951301       -1.093580        0.057506
C        1.839600        0.081551        0.034094
H        2.347468       -0.287711        0.878275
H        2.386782       -0.337928       -0.908580
H        1.845457        1.220348        0.019008
N        0.416777       -0.448780       -0.014420
N       -0.424268        0.402523       -0.033647
10
  Step 13: 13.0 fs
C       -1.850402       -0.072345       -0.006182
H       -2.233203        0.428836        1.059489
H       -2.355167        0.615728       -0.743330
H       -1.894197       -1.080916        0.084690
C        1.836821        0.084893        0.037373
H        2.337850       -0.289619        0.876156
H        2.408202       -0.353399       -0.932315
H        1.855308        1.244044        0.025599
N        0.415778       -0.449796       -0.014723
N       -0.412681        0.398403       -0.038767
10
  Step 14: 14.0 fs
C       -1.863445       -0.072181       -0.006850
H       -2.266932        0.432470        1.087087
H       -2.345974        0.654037       -0.729561
H       -1.844654       -1.102166        0.106424
C        1.833828        0.089381        0.037498
H        2.334798       -0.299163        0.889932
H        2.417286       -0.358883       -0.936575
H        1.864451        1.251609        0.031606
N        0.416634       -0.453122       -0.014746
N       -0.402685        0.396791       -0.043938
10
  Step 15: 15.0 fs
C       -1.875831       -0.067632       -0.004991
H       -2.290288        0.421970        1.089264
H       -2.337114        0.674092       -0.715056
H       -1.804137       -1.146876        0.120942
C        1.831108        0.094669        0.034823
H        2.335518       -0.313811        0.914273
H        2.413062       -0.353379       -0.919923
H        1.872118        1.242049        0.036793
N        0.419506       -0.458857       -0.014472
N       -0.394785        0.397974       -0.049083
10
  Step 16: 16.0 fs
C       -1.887108       -0.060447       -0.000310
H       -2.302161        0.397644        1.066303
H       -2.330373        0.675887       -0.702218
H       -1.774579       -1.195196        0.125714
C        1.829137        0.100070        0.030289
H        2.335346       -0.329156        0.940350
H        2.396746       -0.337635       -0.884485
H        1.877618        1.218373        0.041075
N        0.424228       -0.466755       -0.013905
N       -0.389121        0.401861       -0.054127
10
  Step 17: 17.0 fs
C       -1.896706       -0.052330        0.007263
H       -2.302837        0.361320        1.021829
H       -2.328069        0.661881       -0.694866
H       -1.757852       -1.231284        0.119098
C        1.828085        0.104759        0.025077
H        2.330487       -0.341118        0.960443
H        2.372239       -0.314551       -0.836598
H        1.880423        1.187776        0.044604
N        0.430346       -0.476253       -0.013070
N       -0.385520        0.408007       -0.058984
10
  Step 18: 18.0 fs
C       -1.903967       -0.044697        0.017266
H       -2.294944        0.317215        0.965062
H       -2.332529        0.635945       -0.697342
H       -1.754917       -1.246238        0.100833
C        1.827616        0.107995        0.020598
H        2.319016       -0.346941        0.969771
H        2.347323       -0.290096       -0.788527
H        1.880229        1.161003        0.047802
N        0.437214       -0.486577       -0.012016
N       -0.383589        0.415721       -0.063555
10
  Step 19: 19.0 fs
C       -1.908079       -0.038794        0.028256
H       -2.285243        0.273186        0.914592
H       -2.345175        0.601671       -0.712681
H       -1.765660       -1.236481        0.071751
C        1.826901        0.109393        0.018450
H        2.300894       -0.345443        0.966773
H        2.333527       -0.273129       -0.758044
H        1.876870        1.149224        0.051240
N        0.444120       -0.496873       -0.010807
N       -0.382834        0.424212       -0.067739
10
  Step 20: 20.0 fs
C       -1.908128       -0.035596        0.037704
H       -2.284941        0.239944        0.897661
H       -2.365587        0.560839       -0.740331
H       -1.788890       -1.202730        0.033523
C        1.825121        0.109066        0.019727
H        2.277756       -0.337047        0.952996
H        2.340549       -0.270845       -0.759656
H        1.870132        1.157950        0.055209
N        0.450391       -0.506338       -0.009520
N       -0.382772        0.432723       -0.071435
10
  Step 21: 21.0 fs
C       -1.903781       -0.035171        0.043591
H       -2.301802        0.223790        0.930642
H       -2.391316        0.513711       -0.775382
H       -1.822256       -1.150535       -0.011580
C        1.822248        0.107360        0.023895
H        2.252863       -0.323874        0.933227
H        2.367120       -0.281808       -0.790947
H        1.859748        1.183289        0.059341
N        0.455457       -0.514302       -0.008235
N       -0.383008        0.440600       -0.074564
10
  Step 22: 22.0 fs
C       -1.896026       -0.036164        0.046366
H       -2.330357        0.220786        0.998177
H       -2.418799        0.460877       -0.810511
H       -1.862283       -1.092204       -0.061021
C        1.818906        0.104756        0.029006
H        2.230999       -0.309685        0.915358
H        2.402390       -0.297675       -0.835215
H        1.845640        1.214785        0.062792
N        0.458888       -0.520256       -0.007030
N       -0.383254        0.447312       -0.077078
10
  Step 23: 23.0 fs
C       -1.886435       -0.036448        0.047714
H       -2.358720        0.223208        1.071112
H       -2.444493        0.404795       -0.838647
H       -1.905137       -1.047019       -0.112648
C        1.815624        0.101911        0.032993
H        2.217553       -0.298979        0.908637
H        2.435233       -0.310545       -0.875630
H        1.828152        1.241351        0.064739
N        0.460403       -0.523861       -0.005977
N       -0.383339        0.452452       -0.078961
10
  Step 24: 24.0 fs
C       -1.876175       -0.034346        0.048887
H       -2.378154        0.225579        1.128376
H       -2.465675        0.349975       -0.854889
H       -1.947925       -1.032910       -0.164854
C        1.812693        0.099384        0.034569
H        2.216021       -0.294625        0.918789
H        2.458432       -0.315854       -0.901461
H        1.808023        1.255051        0.064644
N        0.459874       -0.524943       -0.005135
N       -0.383197        0.455741       -0.080218
10
  Step 25: 25.0 fs
C       -1.865948       -0.029857        0.050374
H       -2.384216        0.225079        1.159182
H       -2.480823        0.302047       -0.857131
H       -1.988197       -1.051731       -0.214396
C        1.810388        0.097343        0.033528
H        2.225798       -0.295869        0.943593
H        2.468328       -0.311801       -0.907498
H        1.786241        1.252055        0.062302
N        0.457298       -0.523484       -0.004543
N       -0.382833        0.457038       -0.080864
10
  Step 26: 26.0 fs
C       -1.856283       -0.024454        0.052090
H       -2.375166        0.220581        1.159308
H       -2.489509        0.266360       -0.845715
H       -2.022302       -1.089415       -0.255211
C        1.809039        0.095563        0.030512
H        2.242705       -0.299089        0.974204
H        2.463799       -0.298442       -0.892519
H        1.763886        1.232590        0.057801
N        0.452787       -0.519621       -0.004216
N       -0.382300        0.456347       -0.080929
10
  Step 27: 27.0 fs
C       -1.847564       -0.019785        0.053755
H       -2.351016        0.212010        1.128962
H       -2.492194        0.246990       -0.822897
H       -2.046194       -1.129909       -0.281382
C        1.808838        0.093616        0.026519
H        2.261554       -0.300329        1.000633
H        2.446120       -0.277435       -0.858929
H        1.741975        1.200880        0.051527
N        0.446554       -0.513640       -0.004140
N       -0.381698        0.453819       -0.080453
10
  Step 28: 28.0 fs
C       -1.839879       -0.017026        0.055054
H       -2.313654        0.200247        1.073047
H       -2.490198        0.246431       -0.792566
H       -2.057022       -1.162371       -0.289585
C        1.809647        0.091046        0.022661
H        2.278057       -0.296886        1.015640
H        2.419676       -0.252392       -0.813652
H        1.721247        1.164983        0.044150
N        0.438916       -0.505974       -0.004285
N       -0.381186        0.449747       -0.079493
10
  Step 29: 29.0 fs
C       -1.832881       -0.016965        0.055390
H       -2.268035        0.187601        1.003801
H       -2.485613        0.265733       -0.759893
H       -2.053555       -1.180737       -0.279147
C        1.810853        0.087531        0.020257
H        2.289423       -0.287585        1.015639
H        2.393364       -0.229508       -0.769911
H        1.701976        1.135628        0.036501
N        0.430295       -0.497194       -0.004605
N       -0.380993        0.444567       -0.078116
10
  Step 30: 30.0 fs
C       -1.825723       -0.020238        0.053418
H       -2.223816        0.178678        0.944544
H       -2.480754        0.304627       -0.730288
H       -2.035909       -1.181924       -0.251343
C        1.811413        0.083117        0.020763
H        2.294446       -0.272683        1.000609
H        2.379749       -0.216766       -0.745956
H        1.684146        1.122418        0.029290
N        0.421209       -0.488003       -0.005046
N       -0.381422        0.438853       -0.076411
10
  Step 31: 31.0 fs
C       -1.817378       -0.027287        0.047221
H       -2.193153        0.179797        0.925182
H       -2.476813        0.361225       -0.707250
H       -2.005365       -1.165383       -0.209081
C        1.810458        0.078251        0.024909
H        2.293651       -0.253820        0.974116
H        2.387323       -0.219329       -0.754512
H        1.668134        1.128621        0.022780
N        0.412262       -0.479187       -0.005541
N       -0.382832        0.433285       -0.074474
10
  Step 32: 32.0 fs
C       -1.807670       -0.037750        0.036299
H       -2.179756        0.193681        0.956950
H       -2.472811        0.431341       -0.690744
H       -1.964415       -1.134321       -0.156971
C        1.807992        0.073513        0.031624
H        2.289640       -0.234054        0.943594
H        2.411384       -0.234800       -0.790334
H        1.655220        1.149469        0.016785
N        0.404094       -0.471546       -0.006014
N       -0.385581        0.428580       -0.072414
10
  Step 33: 33.0 fs
C       -1.797602       -0.049860        0.022725
H       -2.174571        0.215585        1.018852
H       -2.465721        0.508023       -0.677530
H       -1.917008       -1.098475       -0.101269
C        1.804505        0.069535        0.038550
H        2.287192       -0.217575        0.919824
H        2.438782       -0.256115       -0.836135
H        1.647193        1.175570        0.010995
N        0.397303       -0.465776       -0.006390
N       -0.389943        0.425392       -0.070334
10
  Step 34: 34.0 fs
C       -1.788232       -0.060843        0.009086
H       -2.167389        0.238469        1.082944
H       -2.452122        0.582388       -0.663388
H       -1.868234       -1.075445       -0.048522
C        1.800324        0.066933        0.043488
H        2.291488       -0.208281        0.913047
H        2.458194       -0.277011       -0.876186
H        1.645522        1.197782        0.005253
N        0.392357       -0.462361       -0.006600
N       -0.396035        0.424198       -0.068311
10
  Step 35: 35.0 fs
C       -1.780131       -0.068081       -0.002999
H       -2.153076        0.257436        1.131611
H       -2.430022        0.645618       -0.645338
H       -1.822638       -1.083209       -0.002988
C        1.795713        0.066048        0.045334
H        2.304334       -0.207578        0.926411
H        2.463261       -0.293682       -0.900909
H        1.650884        1.209761       -0.000422
N        0.389497       -0.461482       -0.006600
N       -0.403742        0.425211       -0.066391
10
  Step 36: 36.0 fs
C       -1.773544       -0.070725       -0.012747
H       -2.130320        0.269892        1.156649
H       -2.399805        0.691154       -0.622712
H       -1.782658       -1.123395        0.033948
C        1.791147        0.066797        0.044241
H        2.322132       -0.213602        0.953273
H        2.451575       -0.304310       -0.905880
H        1.663123        1.208610       -0.005904
N        0.388677       -0.462980       -0.006376
N       -0.412665        0.428333       -0.064594
10
  Step 37: 37.0 fs
C       -1.768482       -0.069872       -0.019658
H       -2.099767        0.274632        1.155310
H       -2.364201        0.715864       -0.597119
H       -1.749580       -1.179078        0.061175
C        1.787198        0.068773        0.041071
H        2.338482       -0.222875        0.982326
H        2.423513       -0.308525       -0.890435
H        1.681375        1.194865       -0.011044
N        0.389596       -0.466397       -0.005944
N       -0.422150        0.433175       -0.062925
10
  Step 38: 38.0 fs
C       -1.764721       -0.067208       -0.023272
H       -2.063129        0.271212        1.128145
H       -2.327997        0.720360       -0.572233
H       -1.724625       -1.230499        0.076976
C        1.784221        0.071400        0.036869
H        2.347853       -0.232213        1.003805
H        2.382076       -0.307433       -0.857549
H        1.704196        1.172506       -0.015717
N        0.391776       -0.471061       -0.005335
N       -0.431374        0.439132       -0.061387
10
  Step 39: 39.0 fs
C       -1.761853       -0.064204       -0.023276
H       -2.023074        0.259909        1.078964
H       -2.297596        0.708840       -0.553476
H       -1.708697       -1.264453        0.079982
C        1.782167        0.074070        0.032768
H        2.347021       -0.239467        1.011784
H        2.333562       -0.304233       -0.814972
H        1.729779        1.148705       -0.019867
N        0.394658       -0.476211       -0.004582
N       -0.439460        0.445509       -0.059989
10
  Step 40: 40.0 fs
C       -1.759330       -0.062100       -0.019748
H       -1.983583        0.242327        1.016671
H       -2.280095        0.688134       -0.547325
H       -1.702206       -1.274461        0.069694
C        1.780497        0.076332        0.030097
H        2.335123       -0.243622        1.004214
H        2.288162       -0.305021       -0.776575
H        1.756284        1.132497       -0.023587
N        0.397699       -0.481095       -0.003718
N       -0.445584        0.451652       -0.058759
10
  Step 41: 41.0 fs
C       -1.756583       -0.061927       -0.013612
H       -1.950431        0.222507        0.958345
H       -2.280939        0.664558       -0.559024
H       -1.705082       -1.258815        0.046468
C        1.778363        0.078116        0.030184
H        2.313385       -0.244780        0.982569
H        2.257669       -0.317751       -0.759510
H        1.782252        1.131055       -0.027151
N        0.400429       -0.485054       -0.002765
N       -0.449066        0.457033       -0.057747
10
  Step 42: 42.0 fs
C       -1.753250       -0.064244       -0.006935
H       -1.930797        0.207298        0.929276
H       -2.300916        0.639841       -0.589201
H       -1.716749       -1.220003        0.011463
C        1.775223        0.079637        0.033348
H        2.285155       -0.244326        0.952069
H        2.247942       -0.346551       -0.772546
H        1.806725        1.145565       -0.030960
N        0.402480       -0.487561       -0.001735
N       -0.449448        0.461300       -0.057020
10
  Step 43: 43.0 fs
C       -1.749480       -0.068661       -0.001855
H       -1.930039        0.202421        0.948517
H       -2.335267        0.610590       -0.632385
H       -1.735998       -1.165666       -0.033489
C        1.771246        0.081044        0.038124
H        2.255999       -0.245096        0.921876
H        2.254148       -0.386498       -0.807205
H        1.828942        1.170445       -0.035330
N        0.403618       -0.488263       -0.000630
N       -0.446551        0.464266       -0.056631
10
  Step 44: 44.0 fs
C       -1.746035       -0.073425        0.001409
H       -1.947568        0.206143        1.007716
H       -2.376111        0.572301       -0.679455
H       -1.761019       -1.110743       -0.086313
C        1.766858        0.082466        0.042128
H        2.232949       -0.251039        0.903672
H        2.266857       -0.427715       -0.846746
H        1.848062        1.196668       -0.040271
N        0.403761       -0.486989        0.000549
N       -0.440515        0.465899       -0.056599
10
  Step 45: 45.0 fs
C       -1.743869       -0.076026        0.004196
H       -1.978141        0.211414        1.080080
H       -2.415736        0.523241       -0.721547
H       -1.789890       -1.076005       -0.145429
C        1.762440        0.084033        0.043502
H        2.221327       -0.265156        0.905931
H        2.278642       -0.461800       -0.877612
H        1.863219        1.215950       -0.045497
N        0.402983       -0.483763        0.001796
N       -0.431779        0.466293       -0.056901
10
  Step 46: 46.0 fs
C       -1.743686       -0.074847        0.007718
H       -2.015925        0.212095        1.142511
H       -2.448362        0.465374       -0.752169
H       -1.820887       -1.075670       -0.209478
C        1.758525        0.085635        0.041705
H        2.221088       -0.286713        0.927383
H        2.285330       -0.483760       -0.892182
H        1.873730        1.222901       -0.050592
N        0.401499       -0.478790        0.003101
N       -0.421018        0.465661       -0.057493
10
  Step 47: 47.0 fs
C       -1.745919       -0.070430        0.012375
H       -2.056201        0.204866        1.181627
H       -2.470744        0.403518       -0.767858
H       -1.851348       -1.103739       -0.274230
C        1.755825        0.086819        0.037317
H        2.227353       -0.311190        0.957992
H        2.285093       -0.491369       -0.887375
H        1.879263        1.215613       -0.055175
N        0.399635       -0.472447        0.004460
N       -0.409057        0.464344       -0.058328
10
  Step 48: 48.0 fs
C       -1.750819       -0.064633        0.017925
H       -2.095361        0.188579        1.191122
H       -2.482058        0.343846       -0.768015
H       -1.877341       -1.142097       -0.332047
C        1.754944        0.086966        0.031347
H        2.234230       -0.333085        0.986064
H        2.277855       -0.484575       -0.863531
H        1.879949        1.195774       -0.058998
N        0.397812       -0.465261        0.005885
N       -0.396798        0.462806       -0.059365
10
  Step 49: 49.0 fs
C       -1.758353       -0.059206        0.023991
H       -2.130719        0.163453        1.169437
H       -2.483771        0.292760       -0.754812
H       -1.895267       -1.175592       -0.375588
C        1.756143        0.085495        0.024821
H        2.237463       -0.348175        1.003247
H        2.265388       -0.465616       -0.824426
H        1.876414        1.168575       -0.061988
N        0.396498       -0.457878        0.007398
N       -0.385177        0.461609       -0.060577
10
  Step 50: 50.0 fs
C       -1.768116       -0.055368        0.030296
H       -2.160610        0.130699        1.119270
H       -2.479602        0.256159       -0.733214
H       -1.902926       -1.196052       -0.400137
C        1.759235        0.082039        0.018815
H        2.234850       -0.354036        1.005377
H        2.252119       -0.439894       -0.778494
H        1.869700        1.141970       -0.064237
N        0.396158       -0.450986        0.009032
N       -0.375092        0.461340       -0.061942
10
  Step 51: 51.0 fs
C       -1.779306       -0.053957        0.036478
H       -2.185169        0.092624        1.049268
H       -2.475060        0.238953       -0.710592
H       -1.899512       -1.200109       -0.403618
C        1.763559        0.076665        0.014580
H        2.226028       -0.349970        0.992061
H        2.245887       -0.416633       -0.739787
H        1.860968        1.124662       -0.065929
N        0.397163       -0.445221        0.010809
N       -0.367305        0.462522       -0.063433
10
  Step 52: 52.0 fs
C       -1.790765       -0.055571        0.041632
H       -2.208016        0.052803        0.977109
H       -2.475784        0.244433       -0.694902
H       -1.885282       -1.187191       -0.386132
C        1.768177        0.070005        0.013258
H        2.212333       -0.336960        0.966456
H        2.256068       -0.406459       -0.724538
H        1.851084        1.121989       -0.067213
N        0.399707       -0.441053        0.012735
N       -0.362349        0.465509       -0.064999
10
  Step 53: 53.0 fs
C       -1.801171       -0.060466        0.043989
H       -2.237480        0.015539        0.929346
H       -2.484283        0.273179       -0.690849
H       -1.861316       -1.159007       -0.349905
C        1.772476        0.062881        0.014883
H        2.197005       -0.317906        0.935724
H        2.286402       -0.413725       -0.739783
H        1.840495        1.132996       -0.068138
N        0.403745       -0.438705        0.014793
N       -0.360463        0.470406       -0.066557
10
  Step 54: 54.0 fs
C       -1.809681       -0.068187        0.041985
H       -2.281350       -0.016141        0.926559
H       -2.497993        0.322065       -0.697127
H       -1.829385       -1.120880       -0.299821
C        1.776557        0.055865        0.017786
H        2.185329       -0.297649        0.911111
H        2.330075       -0.432342       -0.776373
H        1.829477        1.151317       -0.068699
N        0.408980       -0.438110        0.016947
N       -0.361566        0.477022       -0.067989
10
  Step 55: 55.0 fs
C       -1.816745       -0.077236        0.036169
H       -2.335974       -0.041485        0.962675
H       -2.510787        0.384225       -0.707665
H       -1.791708       -1.084612       -0.243926
C        1.780809        0.049414        0.019608
H        2.183387       -0.281650        0.905071
H        2.375607       -0.452411       -0.818193
H        1.818452        1.168773       -0.068935
N        0.414918       -0.438944        0.019143
N       -0.365297        0.484915       -0.069164
10
  Step 56: 56.0 fs
C       -1.823648       -0.085297        0.028646
H       -2.388842       -0.060383        1.014199
H       -2.516346        0.450470       -0.715498
H       -1.750316       -1.068786       -0.192001
C        1.785616        0.043855        0.018807
H        2.194432       -0.272809        0.923476
H        2.413784       -0.466666       -0.852259
H        1.808060        1.178737       -0.069007
N        0.420962       -0.440718        0.021312
N       -0.371113        0.493488       -0.069950
10
  Step 57: 57.0 fs
C       -1.831431       -0.090392        0.021176
H       -2.429354       -0.072624        1.061080
H       -2.510542        0.511566       -0.715621
H       -1.706588       -1.088145       -0.150915