10
  Step 0: 0.0 fs
C       -1.803713       -0.067737        0.000060
H       -2.311507        0.330690        0.889249
H       -2.311361        0.329971       -0.889485
H       -1.816431       -1.165808        0.000657
C        1.803676        0.067716        0.000025
H        2.310887       -0.329670        0.890044
H        2.312191       -0.330873       -0.888647
H        1.816229        1.165799       -0.000451
N        0.410957       -0.460077       -0.000160
N       -0.410927        0.460083       -0.000115
10
  Step 1: 1.0 fs
C       -1.811419       -0.059026       -0.004803
H       -2.301954        0.332287        0.905746
H       -2.256870        0.272405       -0.855905
H       -1.851170       -1.225406       -0.011658
C        1.795043        0.073325        0.007583
H        2.311662       -0.284970        0.821507
H        2.277457       -0.349146       -0.888813
H        1.886463        1.123669        0.005553
N        0.420568       -0.467185       -0.003396
N       -0.411256        0.464369        0.002606
10
  Step 2: 2.0 fs
C       -1.817827       -0.052682       -0.007371
H       -2.292706        0.333307        0.918958
H       -2.218601        0.228181       -0.848584
H       -1.883688       -1.267988       -0.022253
C        1.785938        0.078301        0.013185
H        2.324263       -0.252698        0.775624
H        2.243520       -0.366491       -0.888982
H        1.953216        1.098095        0.009884
N        0.429512       -0.473525       -0.006449
N       -0.411254        0.467952        0.005346
10
  Step 3: 3.0 fs
C       -1.822005       -0.049972       -0.005839
H       -2.284567        0.333677        0.926117
H       -2.207793        0.205852       -0.888218
H       -1.911960       -1.285610       -0.029657
C        1.775950        0.082307        0.015402
H        2.358612       -0.242499        0.768661
H        2.211401       -0.382076       -0.889210
H        2.014220        1.099586        0.010906
N        0.437216       -0.478464       -0.009125
N       -0.410697        0.470265        0.008124
10
  Step 4: 4.0 fs
C       -1.824350       -0.050778       -0.001281
H       -2.278946        0.334103        0.926095
H       -2.219039        0.201934       -0.962470
H       -1.934344       -1.275926       -0.032731
C        1.765993        0.085329        0.014680
H        2.409730       -0.253221        0.794180
H        2.182453       -0.395307       -0.889759
H        2.066394        1.124804        0.007753
N        0.443196       -0.481551       -0.011251
N       -0.409470        0.470919        0.010961
10
  Step 5: 5.0 fs
C       -1.825807       -0.054376        0.003622
H       -2.277584        0.335991        0.919617
H       -2.239555        0.208496       -1.041071
H       -1.949648       -1.240370       -0.030804
C        1.758004        0.087632        0.012542
H        2.461760       -0.276560        0.832281
H        2.158273       -0.405782       -0.890953
H        2.105193        1.160801        0.000599
N        0.447084       -0.482545       -0.012687
N       -0.407580        0.469701        0.013870
10
  Step 6: 6.0 fs
C       -1.826953       -0.059940        0.006860
H       -2.282065        0.341079        0.908462
H       -2.260220        0.219993       -1.101892
H       -1.957345       -1.184652       -0.023829
C        1.753633        0.089578        0.010192
H        2.501108       -0.304561        0.866534
H        2.140428       -0.413180       -0.892988
H        2.126467        1.194342       -0.009681
N        0.448668       -0.481394       -0.013332
N       -0.405150        0.466582        0.016854
10
  Step 7: 7.0 fs
C       -1.827968       -0.066278        0.007454
H       -2.293248        0.350884        0.894307
H       -2.276232        0.233315       -1.134222
H       -1.957978       -1.121269       -0.012434
C        1.753758        0.091420        0.008238
H        2.520340       -0.331727        0.887698
H        2.130131       -0.417219       -0.895904
H        2.127944        1.216333       -0.021925
N        0.447933       -0.478217       -0.013123
N       -0.402400        0.461697        0.019904
10
  Step 8: 8.0 fs
C       -1.828810       -0.071466        0.005134
H       -2.310819        0.366078        0.877789
H       -2.285178        0.246469       -1.134282
H       -1.953642       -1.071955        0.002353
C        1.758600        0.093202        0.006908
H        2.516579       -0.354452        0.891526
H        2.128003       -0.417662       -0.899607
H        2.109455        1.222205       -0.034942
N        0.445076       -0.473280       -0.012048
N       -0.399619        0.455337        0.023012
10
  Step 9: 9.0 fs
C       -1.829383       -0.073280        0.000024
H       -2.333242        0.386101        0.858406
H       -2.285867        0.257907       -1.102236
H       -1.947368       -1.061504        0.019925
C        1.767871        0.094770        0.006213
H        2.489990       -0.370423        0.877001
H        2.133969       -0.414352       -0.903909
H        2.072686        1.211354       -0.047631
N        0.440498       -0.466993       -0.010141
N       -0.397151        0.447939        0.026173
10
  Step 10: 10.0 fs
C       -1.829752       -0.070996       -0.007478
H       -2.358130        0.409280        0.835307
H       -2.278201        0.266627       -1.041896
H       -1.940515       -1.096716        0.040437
C        1.780842        0.095767        0.005986
H        2.443431       -0.378564        0.846015
H        2.147309       -0.407241       -0.908601
H        2.021040        1.187255       -0.059055
N        0.434777       -0.459907       -0.007485
N       -0.395375        0.440089        0.029375
10
  Step 11: 11.0 fs
C       -1.830075       -0.066195       -0.016465
H       -2.382763        0.433271        0.808290
H       -2.264164        0.272973       -0.962997
H       -1.932034       -1.157967        0.063317
C        1.796314        0.095664        0.005788
H        2.383340       -0.379874        0.804681
H        2.166839       -0.396418       -0.913561
H        1.959404        1.158174       -0.068532
N        0.428613       -0.452700       -0.004213
N       -0.394685        0.432493        0.032606
10
  Step 12: 12.0 fs
C       -1.830147       -0.061245       -0.025156
H       -2.404575        0.455619        0.778460
H       -2.249927        0.280348       -0.885253
H       -1.921021       -1.219311        0.086472
C        1.812629        0.093996        0.004697
H        2.321082       -0.379146        0.765792
H        2.191177       -0.382116       -0.918782
H        1.893164        1.136153       -0.075665
N        0.422739       -0.446134       -0.000493
N       -0.395481        0.425895        0.035842
10
  Step 13: 13.0 fs
C       -1.829161       -0.058207       -0.030973
H       -2.421612        0.474302        0.748293
H       -2.246879        0.296486       -0.838555
H       -1.907831       -1.262990        0.107250
C        1.827923        0.090882        0.001245
H        2.271805       -0.385778        0.749035
H        2.219037       -0.364752       -0.924319
H        1.826695        1.131793       -0.079997
N        0.417800       -0.440966        0.003477
N       -0.398110        0.420973        0.039046
10
  Step 14: 14.0 fs
C       -1.826430       -0.058332       -0.032140
H       -2.432872        0.488129        0.721060
H       -2.263580        0.327560       -0.844282
H       -1.893509       -1.280046        0.123382
C        1.840875        0.087107       -0.005721
H        2.246003       -0.407490        0.769956
H        2.249457       -0.344990       -0.930225
H        1.763040        1.146813       -0.080511
N        0.414248       -0.437824        0.007491
N       -0.402768        0.418230        0.042170
10
  Step 15: 15.0 fs
C       -1.822494       -0.061380       -0.029600
H       -2.438325        0.496800        0.699790
H       -2.293397        0.367340       -0.892062
H       -1.879209       -1.267628        0.133386
C        1.851298        0.083262       -0.015605
H        2.240961       -0.439636        0.822986
H        2.281844       -0.323757       -0.936579
H        1.705271        1.173188       -0.075890
N        0.412280       -0.437089        0.011344
N       -0.409405        0.417911        0.045167
10
  Step 16: 16.0 fs
C       -1.818544       -0.066183       -0.025610
H       -2.438632        0.500651        0.686310
H       -2.321937        0.402649       -0.955520
H       -1.866023       -1.227718        0.136614
C        1.859525        0.079506       -0.026496
H        2.247098       -0.469179        0.887111
H        2.315771       -0.302087       -0.943353
H        1.657050        1.199488       -0.065442
N        0.411835       -0.438835        0.014862
N       -0.417681        0.419977        0.047989
10
  Step 17: 17.0 fs
C       -1.815397       -0.071440       -0.021864
H       -2.434843        0.500376        0.681028
H       -2.339177        0.424058       -1.014538
H       -1.855037       -1.167973        0.133332
C        1.865731        0.075976       -0.036629
H        2.256970       -0.485739        0.943246
H        2.350657       -0.280869       -0.950135
H        1.621825        1.216552       -0.049477
N        0.412628       -0.442840        0.017907
N       -0.426997        0.424130        0.050580
10
  Step 18: 18.0 fs
C       -1.813386       -0.075585       -0.019325
H       -2.428198        0.496810        0.683355
H       -2.340747        0.427286       -1.058010
H       -1.847399       -1.104462        0.125092
C        1.869924        0.072877       -0.044892
H        2.266643       -0.484425        0.979907
H        2.385444       -0.260631       -0.955933
H        1.602065        1.219113       -0.029039
N        0.414209       -0.448667        0.020372
N       -0.436587        0.429885        0.052883
10
  Step 19: 19.0 fs
C       -1.812562       -0.076532       -0.018587
H       -2.419983        0.490758        0.692200
H       -2.325677        0.411304       -1.080380
H       -1.844208       -1.062407        0.114923
C        1.872126        0.070349       -0.050711
H        2.274326       -0.464149        0.991527
H        2.418506       -0.241542       -0.959231
H        1.598928        1.205643       -0.005555
N        0.416047       -0.455759        0.022174
N       -0.445630        0.436652        0.054851
10
  Step 20: 20.0 fs
C       -1.812868       -0.072564       -0.019971
H       -2.411448        0.482902        0.706334
H       -2.294890        0.377110       -1.079348
H       -1.846002       -1.064264        0.105786
C        1.872455        0.068407       -0.053883
H        2.279473       -0.426249        0.976684
H        2.447854       -0.223593       -0.958448
H        1.612144        1.178003        0.019438
N        0.417610       -0.463525        0.023260
N       -0.453347        0.443814        0.056450
10
  Step 21: 21.0 fs
C       -1.814227       -0.064194       -0.023330
H       -2.403738        0.473775        0.724491
H       -2.250921        0.327585       -1.055676
H       -1.852089       -1.107383        0.097869
C        1.871116        0.066890       -0.054515
H        2.282632       -0.374214        0.937768
H        2.471504       -0.206818       -0.952534
H        1.639810        1.141835        0.044468
N        0.418432       -0.471398        0.023600
N       -0.459058        0.450792        0.057662
10
  Step 22: 22.0 fs
C       -1.816473       -0.053911       -0.027932
H       -2.397685        0.463639        0.745087
H       -2.198648        0.268008       -1.015166
H       -1.860704       -1.167389        0.089460
C        1.868300        0.065482       -0.053125
H        2.286086       -0.314311        0.882457
H        2.487877       -0.191443       -0.941486
H        1.678295        1.106971        0.068282
N        0.418162       -0.478848        0.023194
N       -0.462225        0.457065        0.058499
10
  Step 23: 23.0 fs
C       -1.819140       -0.044309       -0.032305
H       -2.393656        0.452425        0.765808
H       -2.146540        0.206664       -0.972795
H       -1.869904       -1.220981        0.079685
C        1.863965        0.063891       -0.050855
H        2.295283       -0.256322        0.826296
H        2.496123       -0.177977       -0.926632
H        1.722762        1.086147        0.089922
N        0.416610       -0.485409        0.022082
N       -0.462506        0.462199        0.058992
10
  Step 24: 24.0 fs
C       -1.821412       -0.037287       -0.034097
H       -2.391711        0.440023        0.783673
H       -2.106350        0.153699       -0.954846
H       -1.878099       -1.254626        0.068981
C        1.857654        0.062193       -0.049324
H        2.319084       -0.211967        0.791307
H        2.496309       -0.167255       -0.910672
H        1.768671        1.089265        0.108401
N        0.413757       -0.490692        0.020339
N       -0.459770        0.465860        0.059191
10
  Step 25: 25.0 fs
C       -1.822630       -0.033811       -0.031392
H       -2.391994        0.426760        0.795824
H       -2.086554        0.115565       -0.983364
H       -1.884085       -1.262620        0.058554
C        1.848938        0.060934       -0.049410
H        2.363580       -0.188617        0.791968
H        2.489408       -0.160403       -0.897411
H        1.812917        1.116242        0.122119
N        0.409734       -0.494410        0.018062
N       -0.454098        0.467838        0.059163
10
  Step 26: 26.0 fs
C       -1.822911       -0.033877       -0.025005
H       -2.395057        0.413713        0.800664
H       -2.084922        0.091241       -1.049323
H       -1.886978       -1.244179        0.049919
C        1.838318        0.060759       -0.050082
H        2.422844       -0.184797        0.820444
H        2.476923       -0.158645       -0.890825
H        1.853247        1.156955        0.129046
N        0.404786       -0.496406        0.015349
N       -0.445767        0.468075        0.058976
10
  Step 27: 27.0 fs
C       -1.822723       -0.037041       -0.017549
H       -2.401787        0.402631        0.798230
H       -2.093727        0.077471       -1.123655
H       -1.886203       -1.202324        0.044530
C        1.827065        0.062187       -0.049485
H        2.482739       -0.194634        0.857075
H        2.460052       -0.162880       -0.893427
H        1.887453        1.198104        0.127736
N        0.399239       -0.496675        0.012292
N       -0.435233        0.466660        0.058690
10
  Step 28: 28.0 fs
C       -1.822320       -0.042595       -0.011187
H       -2.413001        0.395519        0.789638
H       -2.106873        0.072279       -1.183278
H       -1.881611       -1.144895        0.043566
C        1.816445        0.065507       -0.046433
H        2.530944       -0.212746        0.886272
H        2.438882       -0.173257       -0.905003
H        1.913430        1.229012        0.117913
N        0.393486       -0.495360        0.008976
N       -0.423117        0.463840        0.058357
10
  Step 29: 29.0 fs
C       -1.821726       -0.049241       -0.007140
H       -2.428926        0.394074        0.776184
H       -2.120773        0.074447       -1.216267
H       -1.873619       -1.087293        0.048000
C        1.807423        0.070702       -0.040658
H        2.560050       -0.235238        0.899636
H        2.412357       -0.189026       -0.922682
H        1.929528        1.243343        0.100365
N        0.387989       -0.492755        0.005486
N       -0.410170        0.460005        0.058027
10
  Step 30: 30.0 fs
C       -1.820894       -0.054954       -0.005986
H       -2.448781        0.399098        0.758643
H       -2.133284        0.082753       -1.217887
H       -1.863190       -1.052753        0.058835
C        1.800659        0.077454       -0.032486
H        2.566479       -0.259288        0.893680
H        2.379094       -0.208746       -0.942212
H        1.934764        1.238886        0.076616
N        0.383261       -0.489290        0.001908
N       -0.397225        0.455677        0.057756
10
  Step 31: 31.0 fs
C       -1.819848       -0.057914       -0.007903
H       -2.470707        0.410197        0.737191
H       -2.143003        0.095745       -1.187620
H       -1.851228       -1.060803        0.077035
C        1.796494        0.085160       -0.022554
H        2.549401       -0.282825        0.868126
H        2.338296       -0.230597       -0.959366
H        1.928991        1.217419        0.048676
N        0.379853       -0.485493       -0.001669
N       -0.385146        0.451473        0.057605
10
  Step 32: 32.0 fs
C       -1.818722       -0.058172       -0.012629
H       -2.492145        0.425944        0.711947
H       -2.149186        0.111877       -1.128773
H       -1.838037       -1.107721        0.102270
C        1.794888        0.092914       -0.011671
H        2.510575       -0.304549        0.825535
H        2.290318       -0.252739       -0.971007
H        1.913078        1.185254        0.018847
N        0.378297       -0.481925       -0.005157
N       -0.374747        0.448038        0.057632
10
  Step 33: 33.0 fs
C       -1.817591       -0.057404       -0.019260
H       -2.510350        0.444303        0.683653
H       -2.152386        0.129904       -1.050567
H       -1.824007       -1.170252        0.131910
C        1.795306        0.099565       -0.000838
H        2.455477       -0.324652        0.772480
H        2.236793       -0.273559       -0.975589
H        1.888965        1.153584       -0.010605
N        0.379018       -0.479071       -0.008467
N       -0.366711        0.445934        0.057884
10
  Step 34: 34.0 fs
C       -1.816232       -0.057322       -0.026056
H       -2.522900        0.463128        0.654134
H       -2.155961        0.149821       -0.971876
H       -1.810157       -1.225750        0.162104
C        1.796609        0.104069        0.008645
H        2.395110       -0.346477        0.721503
H        2.180454       -0.291873       -0.973365
H        1.859299        1.136257       -0.037900
N        0.382252       -0.477252       -0.011502
N       -0.361527        0.445530        0.058377
10
  Step 35: 35.0 fs
C       -1.814002       -0.059136       -0.030542
H       -2.528163        0.480649        0.626327
H       -2.167142        0.174040       -0.921332
H       -1.797821       -1.260264        0.189173
C        1.797213        0.106222        0.015209
H        2.345531       -0.377688        0.690690
H        2.124821       -0.307047       -0.966294
H        1.826634        1.142364       -0.061719
N        0.387949       -0.476543       -0.014157
N       -0.359434        0.446912        0.059090
10
  Step 36: 36.0 fs
C       -1.810273       -0.063499       -0.030949
H       -2.525548        0.495776        0.603736
H       -2.192141        0.205087       -0.920372
H       -1.788227       -1.267240        0.210250
C        1.795871        0.106828        0.017758
H        2.319180       -0.425271        0.693745
H        2.073886       -0.319038       -0.957673
H        1.793195        1.169317       -0.080419
N        0.395754       -0.476753       -0.016325
N       -0.360394        0.449870        0.059967
10
  Step 37: 37.0 fs
C       -1.805281       -0.070140       -0.028035
H       -2.515378        0.508076        0.589402
H       -2.226739        0.239131       -0.960883
H       -1.782266       -1.245456        0.223568
C        1.792576        0.106553        0.016742
H        2.314093       -0.484686        0.726351
H        2.031762       -0.328300       -0.951518
H        1.761230        1.205472       -0.091868
N        0.405051       -0.477472       -0.017897
N       -0.364118        0.453955        0.060936
10
  Step 38: 38.0 fs
C       -1.799875       -0.078006       -0.023974
H       -2.498492        0.517497        0.584911
H       -2.259798        0.267551       -1.017617
H       -1.780433       -1.198674        0.228639
C        1.788122        0.105390        0.013681
H        2.319191       -0.541751        0.771439
H        2.002149       -0.335446       -0.951357
H        1.732987        1.238008       -0.094315
N        0.415075       -0.478172       -0.018770
N       -0.370128        0.458584        0.061913
10
  Step 39: 39.0 fs
C       -1.794745       -0.085664       -0.020533
H       -2.475992        0.524141        0.590190
H       -2.282653        0.283547       -1.070059
H       -1.782812       -1.137183        0.226635
C        1.783222        0.103162        0.009911
H        2.325147       -0.583892        0.813455
H        1.987740       -0.340686       -0.958797
H        1.710345        1.257729       -0.087027
N        0.425021       -0.478325       -0.018854
N       -0.377836        0.463146        0.062805
10
  Step 40: 40.0 fs
C       -1.790253       -0.091207       -0.018829
H       -2.449193        0.528196        0.604001
H       -2.291132        0.283907       -1.106566
H       -1.789105       -1.080587        0.221145
C        1.778333        0.099773        0.006152
H        2.326939       -0.604117        0.842879
H        1.989740       -0.343398       -0.972730
H        1.694660        1.259760       -0.070240
N        0.434132       -0.477503       -0.018105
N       -0.386616        0.467095        0.063523
10
  Step 41: 41.0 fs
C       -1.786538       -0.092408       -0.019612
H       -2.419649        0.529943        0.624577
H       -2.284010        0.268006       -1.121325
H       -1.798913       -1.054971        0.217821
C        1.773784        0.095144        0.002643
H        2.322537       -0.599847        0.854986
H        2.007719       -0.342227       -0.989701
H        1.686760        1.243285       -0.044908
N        0.441737       -0.475431       -0.016540
N       -0.395847        0.469990        0.063983
10
  Step 42: 42.0 fs
C       -1.783616       -0.088197       -0.023135
H       -2.389149        0.529756        0.650091
H       -2.261856        0.237037       -1.112205
H       -1.811983       -1.074652        0.220153
C        1.769865        0.089170       -0.000646
H        2.311782       -0.571561        0.848413
H        2.039775       -0.335634       -1.005185
H        1.686964        1.211237       -0.012487
N        0.447272       -0.471996       -0.014242
N       -0.404925        0.471522        0.064117
10
  Step 43: 43.0 fs
C       -1.781468       -0.079976       -0.028851
H       -2.359566        0.527959        0.678747
H       -2.226827        0.193862       -1.080555
H       -1.827511       -1.126397        0.225531
C        1.766827        0.081724       -0.003904
H        2.296185       -0.522542        0.824923
H        2.082911       -0.322470       -1.014960
H        1.695001        1.170454        0.025241
N        0.450290       -0.467238       -0.011351
N       -0.413272        0.471524        0.063867
10
  Step 44: 44.0 fs
C       -1.780018       -0.070336       -0.035525
H       -2.332546        0.524531        0.708470
H       -2.183491        0.143246       -1.033213
H       -1.843727       -1.184619        0.228886
C        1.764783        0.072777       -0.007530
H        2.279583       -0.459702        0.790520
H        2.133501       -0.302322       -1.016087
H        1.709979        1.131108        0.066400
N        0.450485       -0.461337       -0.008042
N       -0.420380        0.469970        0.063192
10
  Step 45: 45.0 fs
C       -1.778925       -0.061471       -0.041269
H       -2.309356        0.519067        0.736596
H       -2.140172        0.091928       -0.986289
H       -1.858611       -1.230094        0.227098
C        1.763525        0.062682       -0.012309
H        2.269446       -0.394686        0.757564
H        2.187748       -0.275649       -1.007424
H        1.730435        1.104201        0.109170
N        0.447743       -0.454585       -0.004501
N       -0.425858        0.466971        0.062066
10
  Step 46: 46.0 fs
C       -1.777531       -0.054833       -0.043546
H       -2.291052        0.511178        0.760056
H       -2.108558        0.047177       -0.965733
H       -1.870458       -1.253000        0.219433
C        1.762494        0.052433       -0.019291
H        2.276170       -0.341865        0.743527
H        2.242208       -0.243806       -0.989819
H        1.754578        1.096152        0.151504
N        0.442181       -0.447372       -0.000908
N       -0.429488        0.462777        0.060487
10
  Step 47: 47.0 fs
C       -1.775399       -0.051116       -0.040577
H       -2.278783        0.501057        0.776215
H       -2.096666        0.013056       -0.990571
H       -1.877974       -1.249960        0.206694
C        1.761356        0.043270       -0.028792
H        2.305655       -0.310275        0.759563
H        2.294223       -0.208928       -0.966145
H        1.780408        1.105228        0.190592
N        0.434168       -0.440179        0.002572
N       -0.431249        0.457783        0.058475
10
  Step 48: 48.0 fs
C       -1.772953       -0.050401       -0.033287
H       -2.273924        0.489854        0.783841
H       -2.101257       -0.010402       -1.050095
H       -1.880250       -1.221902        0.190573
C        1.760692        0.036028       -0.039423
H        2.351096       -0.298337        0.798365
H        2.342194       -0.173649       -0.940845
H        1.805766        1.123530        0.223046
N        0.424313       -0.433575        0.005780
N       -0.431324        0.452534        0.056076
10
  Step 49: 49.0 fs
C       -1.770991       -0.052466       -0.024200
H       -2.277868        0.479543        0.783316
H       -2.113419       -0.023679       -1.116787
H       -1.876874       -1.173767        0.173307
C        1.761544        0.031193       -0.048960
H        2.398595       -0.299846        0.842562
H        2.385460       -0.140655       -0.918761
H        1.828544        1.141999        0.245885
N        0.413418       -0.428192        0.008565
N       -0.430096        0.447704        0.053344
10
  Step 50: 50.0 fs
C       -1.770030       -0.056663       -0.015460
H       -2.291593        0.472358        0.776018
H       -2.126308       -0.026890       -1.169326
H       -1.868210       -1.116131        0.157675
C        1.764669        0.029075       -0.055668
H        2.436713       -0.309771        0.877999
H        2.423539       -0.112184       -0.903541
H        1.846973        1.153665        0.257322
N        0.402413       -0.424690        0.010795
N       -0.428111        0.444040        0.050334
10
  Step 51: 51.0 fs
C       -1.770227       -0.061592       -0.008428
H       -2.315168        0.469990        0.763368
H       -2.136229       -0.020472       -1.196644
H       -1.855659       -1.067488        0.147171
C        1.770423        0.029781       -0.058649
H        2.458926       -0.324943        0.896780
H        2.455338       -0.089787       -0.896653
H        1.859777        1.154675        0.256935
N        0.392230       -0.423674        0.012374
N       -0.425991        0.442261        0.047098
10
  Step 52: 52.0 fs
C       -1.771576       -0.065301       -0.003890
H       -2.347362        0.472839        0.746102
H       -2.141418       -0.005467       -1.194364
H       -1.841227       -1.050830        0.145477
C        1.778901        0.033155       -0.057697
H        2.462413       -0.343292        0.895530
H        2.478948       -0.074362       -0.897488
H        1.866249        1.144356        0.245564
N        0.383657       -0.425572        0.013249
N       -0.424291        0.442918        0.043687
10
  Step 53: 53.0 fs
C       -1.774132       -0.066637       -0.002078
H       -2.385633        0.479794        0.724278
H       -2.141242        0.016554       -1.162310
H       -1.826048       -1.077291        0.154278
C        1.789984        0.038748       -0.053090
H        2.446992       -0.363396        0.874012
H        2.492189       -0.066301       -0.904261
H        1.866293        1.125343        0.225229
N        0.377221       -0.430510        0.013417
N       -0.423359        0.446263        0.040148
10
  Step 54: 54.0 fs
C       -1.778039       -0.066356       -0.002596
H       -2.426546        0.488710        0.697935
H       -2.136102        0.043652       -1.104276
H       -1.810010       -1.133643        0.171494
C        1.803290        0.045803       -0.045503
H        2.415003       -0.384536        0.835009
H        2.493401       -0.065586       -0.914936
H        1.860470        1.103942        0.199104
N        0.373126       -0.438232        0.012912
N       -0.423263        0.452175        0.036530
10
  Step 55: 55.0 fs
C       -1.783281       -0.066063       -0.004446
H       -2.466404        0.497145        0.667870
H       -2.128069        0.073789       -1.030042
H       -1.793328       -1.195808        0.192928
C        1.818076        0.053350       -0.036027
H        2.371999       -0.407398        0.785462
H        2.481922       -0.071793       -0.927753
H        1.849905        1.089638        0.171200
N        0.371274       -0.448119        0.011794
N       -0.423818        0.460165        0.032888
10
  Step 56: 56.0 fs
C       -1.789468       -0.066988       -0.005967
H       -2.501901        0.503011        0.636077
H       -2.122090        0.105709       -0.958674
H       -1.777112       -1.244881        0.214441
C        1.833195        0.060609       -0.026195
H        2.327586       -0.435478        0.737949
H        2.458244       -0.084143       -0.941412
H        1.836039        1.091906        0.145466
N        0.371340       -0.459284        0.010137
N       -0.424682        0.469464        0.029282
10
  Step 57: 57.0 fs
C       -1.795839       -0.069887       -0.005016
H       -2.530733        0.505045        0.605723
H       -2.125805        0.140124       -0.916934
H       -1.762896       -1.270216        0.232743