10
  Step 0: 0.0 fs
C       -1.803711       -0.067741        0.000066
H       -2.311475        0.330656        0.889285
H       -2.311400        0.329968       -0.889452
H       -1.816435       -1.165808        0.000646
C        1.803676        0.067712        0.000029
H        2.310896       -0.329683        0.890048
H        2.312204       -0.330885       -0.888629
H        1.816238        1.165792       -0.000411
N        0.410954       -0.460072       -0.000161
N       -0.410928        0.460089       -0.000131
10
  Step 1: 1.0 fs
C       -1.797822       -0.071809        0.002365
H       -2.318249        0.296738        0.843520
H       -2.334339        0.353725       -0.921665
H       -1.840117       -1.060830        0.001615
C        1.813504        0.066403       -0.005968
H        2.307508       -0.299431        0.841842
H        2.361538       -0.362422       -0.900064
H        1.762439        1.168928        0.041886
N        0.415306       -0.466959        0.007297
N       -0.424338        0.464628        0.002372
10
  Step 2: 2.0 fs
C       -1.792170       -0.072159        0.002866
H       -2.331560        0.270601        0.810594
H       -2.350482        0.372646       -0.943599
H       -1.863377       -1.003949        0.000912
C        1.822632        0.065519       -0.013409
H        2.312357       -0.276570        0.809868
H        2.404603       -0.387517       -0.905478
H        1.711738        1.170274        0.080397
N        0.419093       -0.473338        0.014645
N       -0.436794        0.468552        0.004889
10
  Step 3: 3.0 fs
C       -1.786690       -0.065851        0.000517
H       -2.356497        0.258044        0.799748
H       -2.356093        0.384128       -0.950262
H       -1.887862       -1.033978       -0.003255
C        1.830405        0.065465       -0.023173
H        2.331684       -0.266343        0.806190
H        2.437028       -0.401778       -0.902023
H        1.667177        1.168077        0.111794
N        0.421889       -0.478831        0.021788
N       -0.447501        0.471375        0.007444
10
  Step 4: 4.0 fs
C       -1.782009       -0.055274       -0.004656
H       -2.391817        0.259386        0.810302
H       -2.349868        0.387586       -0.940830
H       -1.911512       -1.123172       -0.011455
C        1.836738        0.066223       -0.034755
H        2.363502       -0.267765        0.828541
H        2.456574       -0.403052       -0.889804
H        1.631568        1.161367        0.133478
N        0.423396       -0.483185        0.028630
N       -0.455783        0.472766        0.010063
10
  Step 5: 5.0 fs
C       -1.779381       -0.044395       -0.011720
H       -2.429752        0.270072        0.832721
H       -2.332538        0.383943       -0.917787
H       -1.929490       -1.221669       -0.022903
C        1.842015        0.067450       -0.046559
H        2.399023       -0.275257        0.863186
H        2.463192       -0.391340       -0.871446
H        1.607223        1.150369        0.143766
N        0.423442       -0.486257        0.035086
N       -0.461104        0.472535        0.012774
10
  Step 6: 6.0 fs
C       -1.779717       -0.035434       -0.019326
H       -2.461103        0.284449        0.855801
H       -2.307312        0.375708       -0.887328
H       -1.939143       -1.300504       -0.036400
C        1.846520        0.068835       -0.056829
H        2.429308       -0.283218        0.895857
H        2.459250       -0.368834       -0.852035
H        1.595686        1.136626        0.142002
N        0.421972       -0.488006        0.041079
N       -0.463136        0.470592        0.015596
10
  Step 7: 7.0 fs
C       -1.783150       -0.029441       -0.026004
H       -2.479320        0.298230        0.871496
H       -2.280405        0.367407       -0.860044
H       -1.940018       -1.347503       -0.050915
C        1.850176        0.070248       -0.064107
H        2.448583       -0.287993        0.917006
H        2.449551       -0.339788       -0.838952
H        1.597457        1.123029        0.128558
N        0.419048       -0.488480        0.046551
N       -0.461780        0.466938        0.018539
10
  Step 8: 8.0 fs
C       -1.789147       -0.027063       -0.030315
H       -2.481243        0.308843        0.875457
H       -2.260002        0.365128       -0.849484
H       -1.932715       -1.358184       -0.065634
C        1.852666        0.071646       -0.067328
H        2.454156       -0.287722        0.921675
H        2.440206       -0.309544       -0.840549
H        1.611805        1.113646        0.104733
N        0.414832       -0.487799        0.051456
N       -0.457173        0.461671        0.021598
10
  Step 9: 9.0 fs
C       -1.797010       -0.028623       -0.031414
H       -2.466641        0.315143        0.866387
H       -2.251629        0.373292       -0.864928
H       -1.918307       -1.331555       -0.079840
C        1.853772        0.072885       -0.066047
H        2.445637       -0.281849        0.908270
H        2.435202       -0.282158       -0.861997
H        1.636872        1.112980        0.072502
N        0.409598       -0.486161        0.055765
N       -0.449668        0.455005        0.024748
10
  Step 10: 10.0 fs
C       -1.806335       -0.033861       -0.029749
H       -2.437968        0.317310        0.845915
H       -2.253561        0.390699       -0.903001
H       -1.898227       -1.269353       -0.092823
C        1.853618        0.073715       -0.060732
H        2.424763       -0.271019        0.878376
H        2.433329       -0.258582       -0.901159
H        1.670204        1.124143        0.034070
N        0.403733       -0.483843        0.059464
N       -0.439808        0.447299        0.027952
10
  Step 11: 11.0 fs
C       -1.816792       -0.041883       -0.026898
H       -2.400715        0.317201        0.819325
H       -2.259208        0.411608       -0.950298
H       -1.874473       -1.178180       -0.103994
C        1.852471        0.074087       -0.052774
H        2.395974       -0.257455        0.837738
H        2.429242       -0.237584       -0.949210
H        1.709410        1.146532       -0.008446
N        0.397743       -0.481215        0.062560
N       -0.428312        0.439069        0.031159
10
  Step 12: 12.0 fs
C       -1.827687       -0.051017       -0.024759
H       -2.363286        0.318599        0.795944
H       -2.262527        0.429988       -0.992782
H       -1.849817       -1.075764       -0.113517
C        1.850319        0.074486       -0.044234
H        2.367453       -0.245607        0.797927
H        2.417376       -0.218080       -0.995442
H        1.752357        1.175090       -0.052819
N        0.392254       -0.478754        0.065075
N       -0.416054        0.430988        0.034305
10
  Step 13: 13.0 fs
C       -1.838028       -0.058107       -0.024840
H       -2.334965        0.326337        0.787024
H       -2.260200        0.441757       -1.020808
H       -1.827213       -1.000565       -0.123694
C        1.846739        0.075839       -0.037453
H        2.350468       -0.241810        0.775245
H        2.394443       -0.200224       -1.031241
H        1.796856        1.202411       -0.096297
N        0.387968       -0.477023        0.067051
N       -0.403999        0.423832        0.037317
10
  Step 14: 14.0 fs
C       -1.847150       -0.059130       -0.027689
H       -2.321249        0.342989        0.799164
H       -2.251288        0.444949       -1.029529
H       -1.807630       -1.001228       -0.138896
C        1.841393        0.078957       -0.034136
H        2.353462       -0.250698        0.781221
H        2.359686       -0.185262       -1.051392
H        1.840454        1.221894       -0.135650
N        0.385569       -0.476576        0.068541
N       -0.393089        0.418370        0.040127
10
  Step 15: 15.0 fs
C       -1.854935       -0.053986       -0.033082
H       -2.321055        0.366024        0.829041
H       -2.236554        0.439560       -1.018208
H       -1.791094       -1.076501       -0.158748
C        1.834694        0.083950       -0.034290
H        2.374432       -0.270367        0.810732
H        2.314470       -0.175152       -1.054345
H        1.880536        1.229606       -0.167671
N        0.385601       -0.477832        0.069597
N       -0.384112        0.415221        0.042682
10
  Step 16: 16.0 fs
C       -1.861299       -0.046397       -0.040322
H       -2.329023        0.389253        0.865915
H       -2.218313        0.427580       -0.990338
H       -1.780148       -1.177675       -0.177029
C        1.827592        0.090285       -0.036591
H        2.403450       -0.293839        0.846814
H        2.261913       -0.172340       -1.042201
H        1.914641        1.224860       -0.189708
N        0.388362       -0.480949        0.070271
N       -0.377618        0.414706        0.044956
10
  Step 17: 17.0 fs
C       -1.866035       -0.039269       -0.048034
H       -2.339370        0.406421        0.897978
H       -2.200746        0.413334       -0.954762
H       -1.777089       -1.267375       -0.189295
C        1.820865        0.097247       -0.039451
H        2.430753       -0.314321        0.873814
H        2.206699       -0.179660       -1.020890
H        1.940813        1.209986       -0.200047
N        0.393822       -0.485745        0.070627
N       -0.373866        0.416745        0.046942
10
  Step 18: 18.0 fs
C       -1.868780       -0.034190       -0.054402
H       -2.348050        0.413401        0.916699
H       -2.189827        0.403617       -0.925914
H       -1.782519       -1.328237       -0.194111
C        1.814864        0.104142       -0.041472
H        2.450101       -0.327536        0.882420
H        2.154454       -0.200022       -0.999485
H        1.957896        1.189912       -0.198213
N        0.401621       -0.491705        0.070743
N       -0.372801        0.420883        0.048647
10
  Step 19: 19.0 fs
C       -1.869133       -0.032078       -0.057809
H       -2.352939        0.408384        0.917682
H       -2.191359        0.405346       -0.918595
H       -1.795991       -1.353390       -0.191546
C        1.809654        0.110290       -0.041622
H        2.458539       -0.331601        0.868980
H        2.110296       -0.235512       -0.987257
H        1.965665        1.171367       -0.185162
N        0.411127       -0.498077        0.070711
N       -0.374094        0.426406        0.050093
10
  Step 20: 20.0 fs
C       -1.867008       -0.033198       -0.057846
H       -2.353581        0.391546        0.900488
H       -2.206806        0.420075       -0.936652
H       -1.816533       -1.340638       -0.182193
C        1.805247        0.114932       -0.039590
H        2.455609       -0.326521        0.834099
H        2.076886       -0.285261       -0.987990
H        1.964722        1.161399       -0.163181
N        0.421553       -0.504024        0.070638
N       -0.377243        0.432500        0.051302
10
  Step 21: 21.0 fs
C       -1.862758       -0.037143       -0.055652
H       -2.351166        0.364960        0.868562
H       -2.231682        0.442034       -0.969223
H       -1.842792       -1.290698       -0.166905
C        1.801659        0.117348       -0.036013
H        2.443415       -0.314213        0.782455
H        2.054029       -0.343944       -0.997545
H        1.955970        1.164681       -0.135342
N        0.432082       -0.508766        0.070639
N       -0.381678        0.438393        0.052299
10
  Step 22: 22.0 fs
C       -1.856850       -0.043172       -0.053053
H       -2.348833        0.332852        0.829478
H       -2.259095        0.463114       -1.000875
H       -1.872987       -1.208387       -0.147034
C        1.798726        0.117251       -0.032253
H        2.427658       -0.299105        0.723627
H        2.040162       -0.403147       -1.007831
H        1.940017        1.180825       -0.104741
N        0.441953       -0.511683        0.070817
N       -0.386838        0.443442        0.053104
10
  Step 23: 23.0 fs
C       -1.849550       -0.050159       -0.051737
H       -2.351670        0.301523        0.794353
H       -2.283228        0.477274       -1.020314
H       -1.904946       -1.107362       -0.125036
C        1.795896        0.115100       -0.029985
H        2.418454       -0.288476        0.672200
H        2.033705       -0.454512       -1.012213
H        1.917147        1.204230       -0.074031
N        0.450532       -0.512361        0.071264
N       -0.392231        0.447163        0.053736
10
  Step 24: 24.0 fs
C       -1.840896       -0.055744       -0.052767
H       -2.364896        0.277774        0.774153
H       -2.300241        0.481337       -1.021865
H       -1.937156       -1.019138       -0.105022
C        1.792397        0.111831       -0.030656
H        2.427369       -0.290152        0.643280
H        2.033412       -0.491732       -1.007488
H        1.887883        1.226853       -0.045370
N        0.457336       -0.510600        0.072052
N       -0.397470        0.449228        0.054211
10
  Step 25: 25.0 fs
C       -1.830839       -0.056133       -0.056248
H       -2.389905        0.265729        0.773311
H       -2.308035        0.474492       -1.004337
H       -1.971292       -0.991719       -0.091521
C        1.788010        0.108103       -0.034614
H        2.457989       -0.306310        0.642004
H        2.038370       -0.511100       -0.993651
H        1.853426        1.241538       -0.020513
N        0.462025       -0.506396        0.073229
N       -0.402278        0.449438        0.054543
10
  Step 26: 26.0 fs
C       -1.819737       -0.049972       -0.061484
H       -2.422022        0.265010        0.787145
H       -2.306120        0.458153       -0.970341
H       -2.009195       -1.041986       -0.085648
C        1.783491        0.103921       -0.040865
H        2.501038       -0.330864        0.659932
H        2.048017       -0.511411       -0.973138
H        1.815670        1.243737       -0.000862
N        0.464374       -0.499924        0.074823
N       -0.406440        0.447748        0.054748
10
  Step 27: 27.0 fs
C       -1.808810       -0.040618       -0.067285
H       -2.453037        0.272183        0.806305
H       -2.296110        0.436208       -0.926749
H       -2.044753       -1.130850       -0.085420
C        1.779880        0.099055       -0.047892
H        2.542583       -0.355124        0.684448
H        2.062274       -0.493925       -0.950451
H        1.777008        1.232021        0.012611
N        0.464276       -0.491528        0.076829
N       -0.409772        0.444296        0.054835
10
  Step 28: 28.0 fs
C       -1.799150       -0.031734       -0.072082
H       -2.475144        0.283157        0.822213
H       -2.282675        0.415112       -0.885472
H       -2.070324       -1.217913       -0.089003
C        1.777826        0.093438       -0.054292
H        2.571992       -0.372733        0.706221
H        2.081702       -0.462353       -0.932076
H        1.740046        1.208221        0.019468
N        0.461762       -0.481709        0.079214
N       -0.412164        0.439380        0.054804
10
  Step 29: 29.0 fs
C       -1.791085       -0.025521       -0.074213
H       -2.483065        0.294620        0.829405
H       -2.273211        0.402822       -0.861814
H       -2.082051       -1.282480       -0.095197
C        1.777492        0.087163       -0.058910
H        2.583368       -0.380372        0.720081
H        2.107401       -0.422226       -0.925757
H        1.707237        1.177309        0.019930
N        0.457026       -0.471113        0.081904
N       -0.413625        0.433430        0.054639
10
  Step 30: 30.0 fs
C       -1.784612       -0.023031       -0.072630
H       -2.474461        0.304506        0.825650
H       -2.273339        0.404656       -0.866606
H       -2.078891       -1.316132       -0.103110
C        1.778756        0.080273       -0.060979
H        2.574426       -0.376929        0.723779
H        2.140068       -0.378808       -0.937656
H        1.680498        1.146815        0.014920
N        0.450441       -0.460508        0.084789
N       -0.414289        0.426997        0.054306
10
  Step 31: 31.0 fs
C       -1.780046       -0.024344       -0.067640
H       -2.449695        0.311966        0.811433
H       -2.281038        0.418724       -0.897081
H       -2.061077       -1.315946       -0.111930
C        1.781458        0.072617       -0.060421
H        2.545756       -0.363025        0.717306
H        2.178247       -0.334496       -0.968043
H        1.660947        1.125064        0.005887
N        0.442546       -0.450752        0.087735
N       -0.414408        0.420740        0.053760
10
  Step 32: 32.0 fs
C       -1.777908       -0.028969       -0.060682
H       -2.411983        0.317503        0.790035
H       -2.288451        0.437818       -0.939799
H       -2.029524       -1.281862       -0.120839
C        1.785445        0.064133       -0.057970
H        2.501137       -0.341135        0.703262
H        2.217625       -0.288899       -1.010034
H        1.649054        1.117709       -0.005621
N        0.434006       -0.442733        0.090606
N       -0.414333        0.415402        0.052944
10
  Step 33: 33.0 fs
C       -1.778313       -0.036300       -0.053522
H       -2.367744        0.323297        0.768044
H       -2.288354        0.454774       -0.980626
H       -1.985959       -1.216887       -0.129054
C        1.790295        0.055325       -0.055001
H        2.448848       -0.316286        0.688403
H        2.252650       -0.241319       -1.053158
H        1.645050        1.124792       -0.018275
N        0.425534       -0.437267        0.093280
N       -0.414463        0.411729        0.051786
10
  Step 34: 34.0 fs
C       -1.780720       -0.045555       -0.047785
H       -2.325984        0.333151        0.754968
H       -2.277035        0.464948       -1.009737
H       -1.933564       -1.130198       -0.136073
C        1.795098        0.047379       -0.053257
H        2.402036       -0.296127        0.684740
H        2.278761       -0.192507       -1.087853
H        1.649096        1.141077       -0.030886
N        0.417783       -0.434976        0.095650
N       -0.415157        0.410364        0.050216
10
  Step 35: 35.0 fs
C       -1.784168       -0.055007       -0.044555
H       -2.294994        0.350702        0.759398
H       -2.253947        0.466090       -1.021850
H       -1.877732       -1.044446       -0.142402
C        1.798810        0.041653       -0.054342
H        2.373908       -0.288076        0.705258
H        2.293386       -0.144727       -1.107511
H        1.660980        1.159341       -0.042200
N        0.411234       -0.436185        0.097621
N       -0.416625        0.411729        0.048167
10
  Step 36: 36.0 fs
C       -1.787850       -0.061131       -0.043840
H       -2.277813        0.375772        0.782625
H       -2.220735        0.457699       -1.015291
H       -1.824934       -1.001545       -0.150632
C        1.801143        0.038914       -0.058632
H        2.367556       -0.293586        0.751622
H        2.296005       -0.101165       -1.109171
H        1.679803        1.173512       -0.050856
N        0.406107       -0.440847        0.099105
N       -0.418853        0.415940        0.045602
10
  Step 37: 37.0 fs
C       -1.791603       -0.060846       -0.044673
H       -2.271859        0.403126        0.817376
H       -2.180860        0.440999       -0.991940
H       -1.777747       -1.034782       -0.163185
C        1.802705        0.039129       -0.064906
H        2.374507       -0.307255        0.809973
H        2.287946       -0.065349       -1.093697
H        1.703987        1.179903       -0.055462
N        0.402338       -0.448539        0.100010
N       -0.421559        0.422775        0.042527
10
  Step 38: 38.0 fs
C       -1.795503       -0.055831       -0.045982
H       -2.272711        0.425878        0.853327
H       -2.139799        0.419570       -0.958383
H       -1.735753       -1.121195       -0.176436
C        1.804147        0.041891       -0.071275
H        2.384355       -0.322299        0.862568
H        2.272509       -0.040807       -1.066264
H        1.731469        1.177481       -0.054722
N        0.399655       -0.458518        0.100244
N       -0.424260        0.431706        0.039012
10
  Step 39: 39.0 fs
C       -1.799142       -0.049872       -0.046535
H       -2.276800        0.438788        0.881866
H       -2.105139        0.399795       -0.927310
H       -1.700855       -1.216299       -0.184698
C        1.805654        0.046710       -0.075929
H        2.390455       -0.334085        0.896839
H        2.254978       -0.030703       -1.036446
H        1.759978        1.167748       -0.047603
N        0.397705       -0.469854        0.099726
N       -0.426422        0.441966        0.035172
10
  Step 40: 40.0 fs
C       -1.801851       -0.045549       -0.044810
H       -2.281958        0.439039        0.897385
H       -2.084951        0.389294       -0.915119
H       -1.675406       -1.292638       -0.185215
C        1.807017        0.053032       -0.077341
H        2.389877       -0.340356        0.906425
H        2.241752       -0.037451       -1.016566
H        1.787318        1.154431       -0.033574
N        0.396133       -0.481549        0.098393
N       -0.427582        0.452665        0.031150
10
  Step 41: 41.0 fs
C       -1.803200       -0.043973       -0.039972
H       -2.287346        0.425995        0.897548
H       -2.083697        0.391705       -0.931092
H       -1.660636       -1.338131       -0.177470
C        1.807973        0.060209       -0.074639
H        2.382166       -0.340658        0.889765
H        2.237366       -0.062034       -1.015531
H        1.811670        1.142695       -0.012887
N        0.394639       -0.492655        0.096206
N       -0.427396        0.462946        0.027091
10
  Step 42: 42.0 fs
C       -1.803228       -0.045134       -0.032769
H       -2.293367        0.400913        0.883363
H       -2.099479        0.402637       -0.967913
H       -1.656897       -1.348154       -0.161832
C        1.808506        0.067530       -0.068125
H        2.368859       -0.336189        0.849579
H        2.241312       -0.102977       -1.031919
H        1.831813        1.137716        0.013224
N        0.393005       -0.502349        0.093162
N       -0.425668        0.472085        0.023120
10
  Step 43: 43.0 fs
C       -1.802188       -0.048574       -0.024983
H       -2.301764        0.366876        0.859297
H       -2.126585        0.413737       -1.008838
H       -1.664005       -1.321762       -0.139061
C        1.808742        0.074389       -0.059256
H        2.353926       -0.330215        0.793560
H        2.248634       -0.155696       -1.054928
H        1.847141        1.142585        0.042583
N        0.391101       -0.509970        0.089293
N       -0.422345        0.479542        0.019329
10
  Step 44: 44.0 fs
C       -1.800239       -0.053895       -0.018418
H       -2.315608        0.328624        0.832867
H       -2.159177        0.418271       -1.039334
H       -1.681259       -1.261101       -0.110372
C        1.808561        0.080577       -0.050095
H        2.344726       -0.328814        0.735444
H        2.253583       -0.213455       -1.072211
H        1.857483        1.156646        0.072436
N        0.388898       -0.515036        0.084669
N       -0.417510        0.484971        0.015788
10
  Step 45: 45.0 fs
C       -1.797430       -0.060590       -0.014410
H       -2.338556        0.291733        0.812814
H       -2.192669        0.412588       -1.050891
H       -1.707038       -1.173883       -0.077777
C        1.807456        0.086375       -0.042685
H        2.351154       -0.340215        0.692599
H        2.252106       -0.269287       -1.075507
H        1.862942        1.175716        0.100023
N        0.386461       -0.517254        0.079390
N       -0.411363        0.488210        0.012547
10
  Step 46: 46.0 fs
C       -1.793979       -0.067235       -0.013500
H       -2.372272        0.260732        0.804724
H       -2.223745        0.395463       -1.040208
H       -1.738091       -1.080135       -0.044409
C        1.805056        0.092071       -0.038137
H        2.379116       -0.369542        0.675762
H        2.242259       -0.317325       -1.061683
H        1.863881        1.194042        0.123089
N        0.383942       -0.516528        0.073585
N       -0.404214        0.489263        0.009644
10
  Step 47: 47.0 fs
C       -1.790488       -0.070646       -0.015332
H       -2.413948        0.237675        0.807823
H       -2.250207        0.367432       -1.007982
H       -1.769700       -1.019873       -0.013705
C        1.801800        0.097287       -0.035979
H        2.423015       -0.412458        0.680297
H        2.223874       -0.353356       -1.031830
H        1.860930        1.206500        0.140108
N        0.381559       -0.512954        0.067394
N       -0.396476        0.488268        0.007104
10
  Step 48: 48.0 fs
C       -1.787631       -0.067502       -0.019016
H       -2.456953        0.222600        0.816726
H       -2.271283        0.330857       -0.958904
H       -1.798678       -1.034262        0.013321
C        1.798620        0.101165       -0.034869
H        2.469969       -0.458236        0.693724
H        2.198382       -0.375130       -0.990373
H        1.854963        1.209870        0.150264
N        0.379589       -0.506820        0.060971
N       -0.388645        0.485489        0.004933
10
  Step 49: 49.0 fs
C       -1.785772       -0.059120       -0.023304
H       -2.493762        0.214776        0.825578
H       -2.288735        0.290573       -0.903013
H       -1.824410       -1.111252        0.037464
C        1.796192        0.102986       -0.033456
H        2.508563       -0.497080        0.706130
H        2.168905       -0.382873       -0.945005
H        1.847057        1.203362        0.153415
N        0.378362       -0.498592        0.054476
N       -0.381258        0.481343        0.003111
10
  Step 50: 50.0 fs
C       -1.784959       -0.049823       -0.026422
H       -2.518162        0.213228        0.830380
H       -2.308030        0.253545       -0.856304
H       -1.845421       -1.205283        0.057695
C        1.794700        0.102418       -0.030576
H        2.531835       -0.522880        0.712416
H        2.140214       -0.379714       -0.906651
H        1.838391        1.188760        0.150068
N        0.378233       -0.488898        0.048070
N       -0.374874        0.476393        0.001585
10
  Step 51: 51.0 fs
C       -1.784902       -0.042700       -0.026658
H       -2.526079        0.216958        0.829334
H       -2.336533        0.226078       -0.835595
H       -1.860130       -1.285033        0.072666
C        1.793980        0.099431       -0.025237
H        2.536518       -0.532723        0.710771
H        2.117788       -0.370998       -0.887842
H        1.830103        1.170220        0.141315
N        0.379559       -0.478487        0.041902
N       -0.370076        0.471302        0.000282
10
  Step 52: 52.0 fs
C       -1.785499       -0.039029       -0.023467
H       -2.515977        0.225310        0.822786
H       -2.376120        0.209698       -0.846643
H       -1.867803       -1.336445        0.081901
C        1.793820        0.094014       -0.016973
H        2.522013       -0.526107        0.701369
H        2.105345       -0.361022       -0.897044
H        1.823138        1.153489        0.128683
N        0.382662       -0.468156        0.036095
N       -0.367413        0.466756       -0.000876
10
  Step 53: 53.0 fs
C       -1.787208       -0.039003       -0.017833
H       -2.489041        0.238252        0.813036
H       -2.419014        0.200976       -0.879630
H       -1.868344       -1.354190        0.085605
C        1.794152        0.086031       -0.006328
H        2.490346       -0.504924        0.686254
H        2.102620       -0.349528       -0.932306
H        1.818130        1.143929        0.113753
N        0.387760       -0.458643        0.030737
N       -0.367306        0.463370       -0.001958
10
  Step 54: 54.0 fs
C       -1.790515       -0.042490       -0.011400
H       -2.449359        0.256587        0.804281
H       -2.454191        0.195641       -0.919136
H       -1.862044       -1.336935        0.084347
C        1.794883        0.075623        0.005166
H        2.447264       -0.474350        0.670348
H        2.106271       -0.332851       -0.982085
H        1.815351        1.143786        0.097782
N        0.394888       -0.450505        0.025878
N       -0.369964        0.461573       -0.003020
10
  Step 55: 55.0 fs
C       -1.795422       -0.049341       -0.005703
H       -2.403453        0.282008        0.802259
H       -2.473854        0.190978       -0.952805
H       -1.849538       -1.286079        0.078985
C        1.795524        0.063751        0.015420
H        2.403847       -0.444110        0.663207
H        2.112629       -0.307973       -1.032157
H        1.814778        1.150804        0.081709
N        0.403827       -0.444042        0.021528
N       -0.375325        0.461529       -0.004111
10
  Step 56: 56.0 fs
C       -1.801526       -0.059200       -0.001863
H       -2.358168        0.316401        0.812288
H       -2.474558        0.185840       -0.973049
H       -1.831911       -1.207255        0.070809
C        1.795197        0.052105        0.022278
H        2.374851       -0.426775        0.678060
H        2.119347       -0.274555       -1.070951
H        1.816221        1.159698        0.066489
N        0.414080       -0.439277        0.017674
N       -0.383043        0.463122       -0.005281
10
  Step 57: 57.0 fs
C       -1.808393       -0.070857       -0.000361
H       -2.317310        0.359751        0.835262
H       -2.456189        0.180146       -0.976188
H       -1.810799       -1.115450        0.061932