10
  Step 0: 0.0 fs
C       -1.803708       -0.067739        0.000067
H       -2.311500        0.330659        0.889267
H       -2.311375        0.329968       -0.889471
H       -1.816431       -1.165811        0.000661
C        1.803675        0.067714        0.000030
H        2.310875       -0.329670        0.890055
H        2.312196       -0.330903       -0.888627
H        1.816232        1.165779       -0.000440
N        0.410955       -0.460070       -0.000167
N       -0.410928        0.460086       -0.000123
10
  Step 1: 1.0 fs
C       -1.785774       -0.067406       -0.006395
H       -2.346048        0.363243        0.883440
H       -2.314365        0.348843       -0.819864
H       -1.829425       -1.160758       -0.007702
C        1.801505        0.072804        0.004804
H        2.343392       -0.336416        0.886773
H        2.281049       -0.294161       -0.875407
H        1.793347        1.065406       -0.056329
N        0.416662       -0.464331        0.000043
N       -0.424960        0.460698        0.000430
10
  Step 2: 2.0 fs
C       -1.768439       -0.067069       -0.011239
H       -2.373542        0.390455        0.872894
H       -2.323074        0.372396       -0.765399
H       -1.841863       -1.156666       -0.015831
C        1.799124        0.074574        0.010276
H        2.372984       -0.340242        0.880365
H        2.255429       -0.264290       -0.870926
H        1.770547        1.010697       -0.110068
N        0.421754       -0.468220        0.000371
N       -0.438011        0.460897        0.000992
10
  Step 3: 3.0 fs
C       -1.752349       -0.066818       -0.013595
H       -2.389058        0.408655        0.856438
H       -2.341260        0.403790       -0.735661
H       -1.853264       -1.153964       -0.023686
C        1.796497        0.070569        0.017125
H        2.397511       -0.338658        0.869183
H        2.239338       -0.246836       -0.881452
H        1.746711        1.036058       -0.163196
N        0.425722       -0.471467        0.000930
N       -0.449162        0.460403        0.001577
10
  Step 4: 4.0 fs
C       -1.738531       -0.066519       -0.013663
H       -2.390091        0.416056        0.835435
H       -2.366137        0.440897       -0.729806
H       -1.863193       -1.152515       -0.031418
C        1.793637        0.063127        0.024812
H        2.416301       -0.330741        0.853907
H        2.233035       -0.243401       -0.906443
H        1.722709        1.116169       -0.211885
N        0.428175       -0.473896        0.001830
N       -0.457599        0.459062        0.002195
10
  Step 5: 5.0 fs
C       -1.728236       -0.065861       -0.012299
H       -2.376364        0.412505        0.812714
H       -2.389926        0.477426       -0.740330
H       -1.871244       -1.151730       -0.039331
C        1.790550        0.055898        0.031671
H        2.430187       -0.317250        0.837270
H        2.233112       -0.251388       -0.938307
H        1.701553        1.206902       -0.247901
N        0.428882       -0.475391        0.003167
N       -0.462661        0.456833        0.002855
10
  Step 6: 6.0 fs
C       -1.722433       -0.064640       -0.010480
H       -2.349897        0.399449        0.792326
H       -2.404952        0.506960       -0.759278
H       -1.877039       -1.150825       -0.047804
C        1.787272        0.050878        0.036078
H        2.441031       -0.299952        0.823057
H        2.235011       -0.266401       -0.967140
H        1.685509        1.282079       -0.266582
N        0.427789       -0.475886        0.005015
N       -0.463901        0.453757        0.003552
10
  Step 7: 7.0 fs
C       -1.721473       -0.062888       -0.009125
H       -2.315271        0.380080        0.779967
H       -2.406371        0.525141       -0.780750
H       -1.880278       -1.149169       -0.057209
C        1.783840        0.048836        0.036948
H        2.450726       -0.280742        0.814709
H        2.235130       -0.284368       -0.985131
H        1.675620        1.330069       -0.266975
N        0.424995       -0.475396        0.007420
N       -0.461141        0.449940        0.004275
10
  Step 8: 8.0 fs
C       -1.725074       -0.060816       -0.009113
H       -2.279117        0.358950        0.782743
H       -2.392278        0.529863       -0.800743
H       -1.880815       -1.146558       -0.067816
C        1.780338        0.049987        0.033825
H        2.459918       -0.260895        0.813845
H        2.231435       -0.302315       -0.987972
H        1.672200        1.346057       -0.249992
N        0.420725       -0.474047        0.010401
N       -0.454512        0.445536        0.005004
10
  Step 9: 9.0 fs
C       -1.732543       -0.058643       -0.011147
H       -2.247872        0.340362        0.806889
H       -2.363176        0.520889       -0.816586
H       -1.878710       -1.143317       -0.079714
C        1.776953        0.054299        0.026863
H        2.467309       -0.240830        0.819579
H        2.223405       -0.318438       -0.974832
H        1.675144        1.328496       -0.217501
N        0.415320       -0.472102        0.013956
N       -0.444467        0.440764        0.005719
10
  Step 10: 10.0 fs
C       -1.743112       -0.056403       -0.015333
H       -2.224240        0.325741        0.852786
H       -2.321883        0.499910       -0.827094
H       -1.874226       -1.140219       -0.092780
C        1.773931        0.061580        0.016747
H        2.470163       -0.220521        0.829122
H        2.211975       -0.332122       -0.948194
H        1.684015        1.278489       -0.172225
N        0.409235       -0.469967        0.018064
N       -0.431752        0.435932        0.006395
10
  Step 11: 11.0 fs
C       -1.756044       -0.053992       -0.020877
H       -2.206407        0.313000        0.912355
H       -2.273844        0.471049       -0.833624
H       -1.867750       -1.138182       -0.106657
C        1.771468        0.071364        0.004621
H        2.465634       -0.200148        0.839172
H        2.199640       -0.344105       -0.913955
H        1.697848        1.201852       -0.118133
N        0.403049       -0.468187        0.022693
N       -0.417363        0.431463        0.007009
10
  Step 12: 12.0 fs
C       -1.770446       -0.051459       -0.026283
H       -2.191095        0.298865        0.972608
H       -2.227070        0.441180       -0.841294
H       -1.859712       -1.137835       -0.120766
C        1.769630        0.082446       -0.008023
H        2.451940       -0.180621        0.847135
H        2.190320       -0.356454       -0.880910
H        1.714713        1.114875       -0.060903
N        0.397449       -0.467403        0.027793
N       -0.402452        0.427896        0.007535
10
  Step 13: 13.0 fs
C       -1.785244       -0.049147       -0.029892
H       -2.176399        0.281237        1.021467
H       -2.190381        0.418638       -0.858283
H       -1.850557       -1.139161       -0.134374
C        1.768388        0.092151       -0.019672
H        2.428970       -0.163766        0.851861
H        2.188399       -0.371752       -0.858534
H        1.731486        1.052205       -0.006925
N        0.393150       -0.468227        0.033303
N       -0.388181        0.425808        0.007948
10
  Step 14: 14.0 fs
C       -1.799514       -0.047422       -0.030592
H       -2.162275        0.259720        1.050687
H       -2.169464        0.409192       -0.890109
H       -1.840772       -1.141473       -0.146745
C        1.767671        0.097037       -0.029500
H        2.398347       -0.152123        0.853860
H        2.196612       -0.390934       -0.852655
H        1.745275        1.056056        0.040569
N        0.390778       -0.471110        0.039142
N       -0.375572        0.425687        0.008222
10
  Step 15: 15.0 fs
C       -1.812751       -0.046325       -0.028405
H       -2.150034        0.235253        1.056579
H       -2.164305        0.412487       -0.933090
H       -1.830917       -1.143685       -0.157319
C        1.767356        0.096951       -0.037501
H        2.363045       -0.148315        0.855037
H        2.214648       -0.411833       -0.862833
H        1.755767        1.126251        0.080729
N        0.390719       -0.476219        0.045205
N       -0.365374        0.427791        0.008327
10
  Step 16: 16.0 fs
C       -1.824742       -0.045630       -0.024343
H       -2.141874        0.209726        1.039970
H       -2.171131        0.423514       -0.975860
H       -1.821600       -1.144642       -0.165845
C        1.767442        0.094909       -0.043866
H        2.326581       -0.154014        0.857814
H        2.239387       -0.429875       -0.883352
H        1.763783        1.221553        0.109543
N        0.393036       -0.483361        0.051353
N       -0.357989        0.432050        0.008242
10
  Step 17: 17.0 fs
C       -1.835278       -0.045137       -0.019850
H       -2.140842        0.185895        1.006714
H       -2.185770        0.436651       -1.006546
H       -1.813414       -1.143448       -0.172416
C        1.768096        0.093153       -0.048918
H        2.292184       -0.169273        0.864006
H        2.266358       -0.440030       -0.906381
H        1.769765        1.307906        0.123334
N        0.397476       -0.491982        0.057410
N       -0.353467        0.438052        0.007956
10
  Step 18: 18.0 fs
C       -1.844026       -0.044811       -0.016480
H       -2.150878        0.167281        0.968067
H       -2.205067        0.447791       -1.017145
H       -1.806852       -1.139767       -0.177399
C        1.769535        0.092534       -0.052987
H        2.262249       -0.192687        0.873904
H        2.291438       -0.438661       -0.925125
H        1.773931        1.368005        0.121156
N        0.403541       -0.501278        0.063178
N       -0.351581        0.445133        0.007482
10
  Step 19: 19.0 fs
C       -1.850558       -0.044730       -0.015692
H       -2.176319        0.157530        0.938655
H       -2.226958        0.454674       -1.004303
H       -1.802249       -1.134028       -0.181275
C        1.771954        0.093213       -0.056207
H        2.238118       -0.221800        0.885886
H        2.311684       -0.424141       -0.935139
H        1.776471        1.394255        0.103925
N        0.410587       -0.510338        0.068454
N       -0.351932        0.452496        0.006859
10
  Step 20: 20.0 fs
C       -1.854548       -0.044921       -0.018223
H       -2.219649        0.158608        0.928671
H       -2.250308        0.456766       -0.969049
H       -1.799770       -1.127451       -0.184513
C        1.775471        0.095129       -0.058471
H        2.220321       -0.253561        0.896968
H        2.325638       -0.396856       -0.934656
H        1.777570        1.383742        0.073489
N        0.417942       -0.518300        0.073049
N       -0.354063        0.459359        0.006143
10
  Step 21: 21.0 fs
C       -1.856031       -0.045251       -0.023390
H       -2.278270        0.169102        0.935711
H       -2.275080        0.455466       -0.916961
H       -1.799460       -1.121830       -0.187485
C        1.780073        0.098150       -0.059499
H        2.209000       -0.284766        0.903863
H        2.333420       -0.359120       -0.924638
H        1.777384        1.336771        0.032371
N        0.424994       -0.524457        0.076802
N       -0.357542        0.465054        0.005397
10
  Step 22: 22.0 fs
C       -1.855358       -0.045564       -0.029350
H       -2.344413        0.184865        0.947910
H       -2.302786        0.454437       -0.858148
H       -1.801329       -1.118910       -0.190413
C        1.785571        0.101994       -0.058939
H        2.204277       -0.312446        0.904044
H        2.336851       -0.315145       -0.908846
H        1.775978        1.258189       -0.016090
N        0.431231       -0.528291        0.079591
N       -0.361984        0.469076        0.004672
10
  Step 23: 23.0 fs
C       -1.852901       -0.045893       -0.034049
H       -2.408671        0.201199        0.953654
H       -2.336526        0.459176       -0.805505
H       -1.805434       -1.119631       -0.193379
C        1.791609        0.105825       -0.056460
H        2.206379       -0.334086        0.896393
H        2.339309       -0.270816       -0.893547
H        1.773160        1.162057       -0.067557
N        0.436257       -0.529487        0.081333
N       -0.367067        0.471092        0.003995
10
  Step 24: 24.0 fs
C       -1.848991       -0.046372       -0.036118
H       -2.463055        0.214399        0.946603
H       -2.378681        0.473990       -0.769070
H       -1.811883       -1.123687       -0.196401
C        1.797763        0.107542       -0.051822
H        2.215640       -0.347748        0.881434
H        2.344842       -0.232799       -0.886027
H        1.768059        1.079330       -0.117622
N        0.439811       -0.527928        0.081989
N       -0.372531        0.470950        0.003378
10
  Step 25: 25.0 fs
C       -1.844188       -0.046927       -0.035323
H       -2.502022        0.222087        0.925530
H       -2.426934        0.498032       -0.750529
H       -1.820765       -1.129639       -0.199504
C        1.803755        0.104016       -0.044932
H        2.232577       -0.352320        0.861523
H        2.356044       -0.206534       -0.891195
H        1.758841        1.053185       -0.164790
N        0.441756       -0.523678        0.081562
N       -0.378174        0.468662        0.002823
10
  Step 26: 26.0 fs
C       -1.839342       -0.047231       -0.032309
H       -2.522397        0.223131        0.892680
H       -2.473793        0.525421       -0.744638
H       -1.832061       -1.135417       -0.202752
C        1.809480        0.094619       -0.036235
H        2.258104       -0.348115        0.841082
H        2.372084       -0.194405       -0.908670
H        1.744550        1.095937       -0.209065
N        0.442058       -0.516973        0.080110
N       -0.383846        0.464390        0.002326
10
  Step 27: 27.0 fs
C       -1.835271       -0.046999       -0.028040
H       -2.523426        0.217617        0.852883
H       -2.510537        0.549314       -0.745044
H       -1.845551       -1.138927       -0.206261
C        1.814790        0.082583       -0.027217
H        2.293514       -0.337122        0.826055
H        2.388759       -0.195516       -0.932879
H        1.727708        1.172678       -0.245422
N        0.440785       -0.508194        0.077746
N       -0.389459        0.458421        0.001887
10
  Step 28: 28.0 fs
C       -1.832416       -0.046176       -0.023526
H       -2.507284        0.206974        0.813573
H       -2.530707        0.564861       -0.747491
H       -1.860781       -1.138644       -0.210219
C        1.819561        0.071066       -0.019555
H        2.339332       -0.321645        0.821158
H        2.400636       -0.207057       -0.956127
H        1.712120        1.247542       -0.267964
N        0.438135       -0.497815        0.074631
N       -0.394990        0.451162        0.001505
10
  Step 29: 29.0 fs
C       -1.830723       -0.044950       -0.019825
H       -2.479628        0.194054        0.784988
H       -2.530942        0.569709       -0.749903
H       -1.877085       -1.134046       -0.214872
C        1.823849        0.061656       -0.014216
H        2.393471       -0.302636        0.826776
H        2.403329       -0.225896       -0.971898
H        1.700588        1.301399       -0.274166
N        0.434429       -0.486396        0.070951
N       -0.400471        0.443119        0.001179
10
  Step 30: 30.0 fs
C       -1.829721       -0.043648       -0.018012
H       -2.448827        0.182657        0.779005
H       -2.510684        0.563620       -0.751615
H       -1.893687       -1.125822       -0.220468
C        1.827921        0.054920       -0.011337
H        2.450544       -0.279488        0.838514
H        2.394451       -0.249427       -0.976265
H        1.694763        1.326144       -0.264147
N        0.430072       -0.474583        0.066908
N       -0.405992        0.434877        0.000904
10
  Step 31: 31.0 fs
C       -1.828913       -0.042562       -0.018760
H       -2.421546        0.175744        0.803760
H       -2.471926        0.548225       -0.752940
H       -1.909820       -1.115812       -0.227159
C        1.832099        0.051034       -0.010529
H        2.503505       -0.251357        0.849991
H        2.373747       -0.275837       -0.968205
H        1.695607        1.318985       -0.239409
N        0.425511       -0.463091        0.062698
N       -0.411678        0.427060        0.000669
10
  Step 32: 32.0 fs
C       -1.828185       -0.041835       -0.021735
H       -2.397689        0.173493        0.856646
H       -2.419441        0.527263       -0.755534
H       -1.924822       -1.106629       -0.234872
C        1.836571        0.050076       -0.011163
H        2.545947       -0.218389        0.855875
H        2.342994       -0.304191       -0.949601
H        1.703657        1.280288       -0.202327
N        0.421193       -0.452656        0.058506
N       -0.417652        0.420288        0.000457
10
  Step 33: 33.0 fs
C       -1.827669       -0.041587       -0.025560
H       -2.371819        0.173756        0.924437
H       -2.360900        0.506872       -0.763077
H       -1.938162       -1.100908       -0.243202
C        1.841297        0.052005       -0.012479
H        2.573503       -0.182024        0.853187
H        2.305810       -0.334549       -0.925172
H        1.718986        1.214011       -0.156233
N        0.417515       -0.443968        0.054491
N       -0.423993        0.415110        0.000256
10
  Step 34: 34.0 fs
C       -1.827346       -0.042089       -0.028504
H       -2.338950        0.174218        0.990920
H       -2.305573        0.494621       -0.780925
H       -1.949412       -1.100363       -0.251392
C        1.846040        0.056367       -0.013633
H        2.584409       -0.144940        0.841651
H        2.267068       -0.367865       -0.901805
H        1.740752        1.130911       -0.105864
N        0.414764       -0.437578        0.050797
N       -0.430685        0.411931        0.000073
10
  Step 35: 35.0 fs
C       -1.827104       -0.043629       -0.029319
H       -2.297457        0.173563        1.043144
H       -2.260632        0.495956       -0.812354
H       -1.958226       -1.105125       -0.258451
C        1.850512        0.061656       -0.013878
H        2.579717       -0.110944        0.823741
H        2.231550       -0.405166       -0.886316
H        1.766436        1.054780       -0.057549
N        0.413072       -0.433795        0.047545
N       -0.437573        0.410947       -0.000059
10
  Step 36: 36.0 fs
C       -1.827018       -0.046197       -0.027767
H       -2.248675        0.171445        1.073257
H       -2.228105        0.510397       -0.853769
H       -1.964320       -1.113714       -0.263390
C        1.854466        0.065014       -0.012982
H        2.563367       -0.084696        0.804729
H        2.202223       -0.445740       -0.881997
H        1.792062        1.023562       -0.017625
N        0.412412       -0.432635        0.044824
N       -0.444347        0.412120       -0.000086
10
  Step 37: 37.0 fs
C       -1.827294       -0.049471       -0.024502
H       -2.195844        0.168160        1.078188
H       -2.206253        0.532216       -0.895330
H       -1.967480       -1.123683       -0.265454
C        1.857488        0.064499       -0.011521
H        2.541704       -0.070986        0.792165
H        2.179960       -0.486197       -0.887249
H        1.815310        1.060781        0.010388
N        0.412623       -0.433831        0.042693
N       -0.450572        0.415194        0.000045
10
  Step 38: 38.0 fs
C       -1.828030       -0.053078       -0.020556
H       -2.143496        0.164517        1.059461
H       -2.192748        0.554452       -0.926468
H       -1.967598       -1.132459       -0.264250
C        1.858954        0.061749       -0.010452
H        2.521468       -0.073355        0.793698
H        2.164520       -0.521721       -0.897463
H        1.837064        1.143891        0.024875
N        0.413447       -0.436902        0.041173
N       -0.455751        0.419751        0.000349
10
  Step 39: 39.0 fs
C       -1.829094       -0.056779       -0.017054
H       -2.097231        0.162020        1.023819
H       -2.186222        0.571703       -0.939776
H       -1.964705       -1.138113       -0.259786
C        1.858531        0.059453       -0.010447
H        2.506132       -0.092659        0.812782
H        2.155474       -0.547813       -0.907504
H        1.858259        1.234958        0.025137
N        0.414580       -0.441233        0.040245
N       -0.459388        0.425280        0.000802
10
  Step 40: 40.0 fs
C       -1.830146       -0.060496       -0.015231
H       -2.063399        0.163107        0.983958
H       -2.186206        0.580729       -0.931745
H       -1.959013       -1.139871       -0.252428
C        1.856415        0.059051       -0.011580
H        2.493844       -0.126789        0.845771
H        2.152535       -0.561367       -0.913372
H        1.878852        1.309032        0.012246
N        0.415727       -0.446176        0.039851
N       -0.461053        0.431253        0.001339
10
  Step 41: 41.0 fs
C       -1.830742       -0.064273       -0.016303
H       -2.047942        0.170894        0.956443
H       -2.192843        0.580387       -0.902540
H       -1.950917       -1.138318       -0.242826
C        1.853135        0.060904       -0.013402
H        2.479385       -0.171495        0.883756
H        2.155581       -0.560982       -0.912849
H        1.898376        1.353690       -0.011477
N        0.416634       -0.451124        0.039912
N       -0.460440        0.437179        0.001880
10
  Step 42: 42.0 fs
C       -1.830505       -0.068127       -0.020755
H       -2.054099        0.187306        0.952944
H       -2.206867        0.571747       -0.856075
H       -1.940976       -1.135362       -0.231834
C        1.849225        0.064883       -0.015257
H        2.457840       -0.221571        0.917153
H        2.164620       -0.547000       -0.905647
H        1.916214        1.363366       -0.043206
N        0.417104       -0.455573        0.040331
N       -0.457411        0.442650        0.002341
10
  Step 43: 43.0 fs
C       -1.829240       -0.071921       -0.027539
H       -2.080365        0.210498        0.970852
H       -2.229952        0.558623       -0.800446
H       -1.929847       -1.133802       -0.220386
C        1.845051        0.070705       -0.016538
H        2.426538       -0.271890        0.938794
H        2.179772       -0.521444       -0.893313
H        1.931653        1.336464       -0.079896
N        0.417024       -0.459149        0.041005
N       -0.452037        0.447371        0.002657
10
  Step 44: 44.0 fs
C       -1.826868       -0.075478       -0.034449
H       -2.121188        0.235190        0.996808
H       -2.264944        0.547500       -0.747131
H       -1.918172       -1.136282       -0.209299
C        1.840776        0.077980       -0.016789
H        2.385302       -0.317993        0.944869
H        2.201222       -0.487876       -0.878894
H        1.943954        1.275184       -0.118309
N        0.416365       -0.461622        0.041813
N       -0.444593        0.451173        0.002770
10
  Step 45: 45.0 fs
C       -1.823362       -0.078713       -0.039371
H       -2.169500        0.255595        1.017407
H       -2.314597        0.544826       -0.706786
H       -1.906449       -1.144008       -0.199086
C        1.836387        0.086004       -0.015745
H        2.336006       -0.356372        0.934829
H        2.229054       -0.451009       -0.866171
H        1.952580        1.187839       -0.155161
N        0.415191       -0.462903        0.042619
N       -0.435531        0.454025        0.002624
10
  Step 46: 46.0 fs
C       -1.818973       -0.081407       -0.041246
H       -2.218707        0.267402        1.024513
H       -2.377736        0.551575       -0.683114
H       -1.894957       -1.156067       -0.189927
C        1.831699        0.093237       -0.013360
H        2.282222       -0.384758        0.911273
H        2.262814       -0.415862       -0.858268
H        1.957916        1.094427       -0.188136
N        0.413650       -0.463026        0.043269
N       -0.425418        0.456028        0.002159
10
  Step 47: 47.0 fs
C       -1.814406       -0.083085       -0.040115
H       -2.263449        0.268184        1.015115
H       -2.447023        0.561725       -0.672099
H       -1.883766       -1.169726       -0.181795
C        1.826325        0.096888       -0.009752
H        2.229026       -0.402618        0.880159
H        2.300915       -0.386615       -0.856171
H        1.962423        1.030838       -0.218250
N        0.411963       -0.462129        0.043597
N       -0.414877        0.457395        0.001323
10
  Step 48: 48.0 fs
C       -1.810578       -0.083319       -0.036535
H       -2.299759        0.257180        0.989879
H       -2.512024        0.567122       -0.667489
H       -1.872815       -1.181427       -0.174625
C        1.819832        0.094415       -0.005310
H        2.182684       -0.411806        0.850858
H        2.340462       -0.365741       -0.858382
H        1.969529        1.030993       -0.249309
N        0.410376       -0.460445        0.043443
N       -0.404526        0.458424        0.000072
10
  Step 49: 49.0 fs
C       -1.808221       -0.081995       -0.031163
H       -2.325259        0.235141        0.952475
H       -2.563669        0.562018       -0.665005
H       -1.861984       -1.187949       -0.168473
C        1.812269        0.086823       -0.001361
H        2.149923       -0.416702        0.835366
H        2.377642       -0.353725       -0.861670
H        1.977887        1.087753       -0.278570
N        0.409113       -0.458286        0.042670
N       -0.394949        0.459463       -0.001616
10
  Step 50: 50.0 fs
C       -1.807675       -0.079315       -0.024723
H       -2.339686        0.204378        0.909818
H       -2.596004        0.544001       -0.662919
H       -1.851125       -1.187293       -0.163581
C        1.804212        0.077388        0.000329
H        2.135571       -0.421471        0.843313
H        2.408441       -0.349482       -0.862274
H        1.982186        1.165614       -0.296867
N        0.408357       -0.456001        0.041186
N       -0.386668        0.460865       -0.003745
10
  Step 51: 51.0 fs
C       -1.808811       -0.075701       -0.018106
H       -2.345607        0.168740        0.872531
H       -2.606243        0.513411       -0.661358
H       -1.840042       -1.179191       -0.160385
C        1.796425        0.068354       -0.000957
H        2.139733       -0.425702        0.874853
H        2.429507       -0.351246       -0.857113
H        1.978633        1.236344       -0.298049
N        0.408257       -0.453909        0.038949
N       -0.380114        0.462943       -0.006293
10
  Step 52: 52.0 fs
C       -1.811069       -0.071661       -0.012319
H       -2.348293        0.132932        0.853705
H       -2.594476        0.472695       -0.661667
H       -1.828445       -1.165265       -0.159450
C        1.789701        0.060489       -0.004624
H        2.157737       -0.424298        0.920045
H        2.438888       -0.357436       -0.844697
H        1.965878        1.284935       -0.280718
N        0.408898       -0.452259        0.035964
N       -0.375601        0.465924       -0.009210
10
  Step 53: 53.0 fs
C       -1.813691       -0.067644       -0.008037
H       -2.352790        0.100713        0.863420
H       -2.563852        0.426263       -0.666319
H       -1.815917       -1.148821       -0.161310
C        1.784683        0.053941       -0.009457
H        2.182973       -0.411843        0.965712
H        2.436482       -0.367153       -0.825559
H        1.944051        1.304424       -0.246302
N        0.410268       -0.451198        0.032279
N       -0.373279        0.469910       -0.012427
10
  Step 54: 54.0 fs
C       -1.816069       -0.063960       -0.004976
H       -2.359473        0.073389        0.901396
H       -2.521009        0.380426       -0.679208
H       -1.801923       -1.134145       -0.166204
C        1.781686        0.048830       -0.014201
H        2.209486       -0.385610        1.001301
H        2.424234       -0.380395       -0.802356
H        1.914127        1.292147       -0.197665
N        0.412233       -0.450763        0.027970
N       -0.373121        0.474856       -0.015863
10
  Step 55: 55.0 fs
C       -1.817825       -0.060887       -0.001867
H       -2.363792        0.050625        0.956341
H       -2.475425        0.342564       -0.705472
H       -1.785912       -1.125161       -0.173794
C        1.780669        0.045336       -0.017747
H        2.232881       -0.345809        1.020457
H        2.405995       -0.398001       -0.779553
H        1.877759        1.248822       -0.138676
N        0.414538       -0.450887        0.023126
N       -0.374926        0.480578       -0.019430
10
  Step 56: 56.0 fs
C       -1.818744       -0.058713        0.002693
H       -2.360579        0.032118        1.013090
H       -2.435626        0.318427       -0.748761
H       -1.767533       -1.123888       -0.183024
C        1.781295        0.043489       -0.019171
H        2.250375       -0.294968        1.020686
H        2.386688       -0.421162       -0.762429
H        1.837311        1.179920       -0.074263
N        0.416841       -0.451420        0.017848
N       -0.378355        0.486777       -0.023031
10
  Step 57: 57.0 fs
C       -1.818912       -0.057606        0.009281
H       -2.347073        0.018136        1.059124
H       -2.404235        0.309107       -0.806224
H       -1.746910       -1.129577       -0.192288