10
  Step 0: 0.0 fs
C       -1.803704       -0.067740        0.000060
H       -2.311502        0.330676        0.889265
H       -2.311360        0.329966       -0.889472
H       -1.816428       -1.165812        0.000654
C        1.803672        0.067715        0.000023
H        2.310888       -0.329683        0.890050
H        2.312187       -0.330892       -0.888629
H        1.816226        1.165793       -0.000435
N        0.410953       -0.460073       -0.000160
N       -0.410926        0.460088       -0.000118
10
  Step 1: 1.0 fs
C       -1.802661       -0.057302        0.004451
H       -2.289145        0.295017        0.849815
H       -2.249495        0.342929       -0.878329
H       -1.747490       -1.213882       -0.027649
C        1.796411        0.069172        0.004181
H        2.327553       -0.387666        0.875938
H        2.352832       -0.366310       -0.923285
H        1.812451        1.209019       -0.052027
N        0.405609       -0.450733        0.005176
N       -0.415130        0.449259       -0.001482
10
  Step 2: 2.0 fs
C       -1.800108       -0.049303        0.007758
H       -2.277686        0.266778        0.829087
H       -2.194552        0.358566       -0.875634
H       -1.682833       -1.246716       -0.055247
C        1.790125        0.070684        0.007283
H        2.340798       -0.439603        0.859007
H        2.383779       -0.395251       -0.945822
H        1.809769        1.239736       -0.100172
N        0.400781       -0.442103        0.010506
N       -0.419523        0.439361       -0.002714
10
  Step 3: 3.0 fs
C       -1.794902       -0.045222        0.008964
H       -2.285906        0.250969        0.841432
H       -2.151404        0.378574       -0.886749
H       -1.626840       -1.256802       -0.081120
C        1.785395        0.072204        0.008754
H        2.348089       -0.480548        0.837743
H        2.399529       -0.414256       -0.951040
H        1.808923        1.250699       -0.141600
N        0.396992       -0.434862        0.015835
N       -0.424282        0.431271       -0.003674
10
  Step 4: 4.0 fs
C       -1.787183       -0.045233        0.008102
H       -2.311686        0.245419        0.881961
H       -2.121665        0.402088       -0.910159
H       -1.583163       -1.242302       -0.104357
C        1.782477        0.073579        0.008274
H        2.348213       -0.507137        0.812550
H        2.397548       -0.421965       -0.938078
H        1.810396        1.239523       -0.173685
N        0.394673       -0.429560        0.021172
N       -0.429478        0.425737       -0.004231
10
  Step 5: 5.0 fs
C       -1.778137       -0.048589        0.005963
H       -2.344197        0.243673        0.931388
H       -2.104483        0.425762       -0.938380
H       -1.554497       -1.205591       -0.124303
C        1.781337        0.074588        0.005686
H        2.341509       -0.517881        0.785824
H        2.377558       -0.418655       -0.909133
H        1.814506        1.208071       -0.194646
N        0.394073       -0.426541        0.026526
N       -0.434988        0.423309       -0.004275
10
  Step 6: 6.0 fs
C       -1.769099       -0.054222        0.003160
H       -2.372843        0.240363        0.971820
H       -2.098053        0.445505       -0.962363
H       -1.542368       -1.153230       -0.140724
C        1.781642        0.074936        0.001035
H        2.329838       -0.513233        0.761757
H        2.341665       -0.406459       -0.869558
H        1.821452        1.162758       -0.203785
N        0.395189       -0.425888        0.031899
N       -0.440460        0.424284       -0.003721
10
  Step 7: 7.0 fs
C       -1.761169       -0.060827       -0.000018
H       -2.390934        0.232534        0.992606
H       -2.100622        0.458065       -0.975117
H       -1.546545       -1.097399       -0.154193
C        1.782704        0.074242       -0.005260
H        2.316421       -0.495518        0.745879
H        2.295227       -0.390257       -0.829057
H        1.831345        1.115414       -0.201838
N        0.397756       -0.427408        0.037285
N       -0.445348        0.428668       -0.002509
10
  Step 8: 8.0 fs
C       -1.755222       -0.066725       -0.003374
H       -2.395282        0.218986        0.989215
H       -2.110762        0.461635       -0.972815
H       -1.564387       -1.056792       -0.166642
C        1.783472        0.072149       -0.012224
H        2.305227       -0.468451        0.743918
H        2.247599       -0.378541       -0.802792
H        1.844267        1.082315       -0.191038
N        0.401297       -0.430667        0.042673
N       -0.449013        0.436163       -0.000604
10
  Step 9: 9.0 fs
C       -1.751840       -0.070244       -0.006691
H       -2.385364        0.199793        0.961593
H       -2.127501        0.456064       -0.954909
H       -1.591774       -1.050974       -0.180910
C        1.782875        0.068582       -0.018533
H        2.299599       -0.435802        0.759468
H        2.209627       -0.381353       -0.807601
H        1.860163        1.077568       -0.174076
N        0.405226       -0.435061        0.048045
N       -0.450871        0.446189        0.002005
10
  Step 10: 10.0 fs
C       -1.751051       -0.070988       -0.009942
H       -2.363297        0.176305        0.914047
H       -2.150409        0.442923       -0.924053
H       -1.626013       -1.085146       -0.198184
C        1.780619        0.063881       -0.023511
H        2.300755       -0.400015        0.791534
H        2.186236       -0.402657       -0.849194
H        1.878279        1.102714       -0.152595
N        0.408941       -0.439911        0.053389
N       -0.450508        0.457950        0.005298
10
  Step 11: 11.0 fs
C       -1.752225       -0.070431       -0.013552
H       -2.334741        0.151366        0.856727
H       -2.179759        0.425488       -0.886125
H       -1.666250       -1.143795       -0.216309
C        1.777513        0.058534       -0.027695
H        2.307306       -0.361957        0.833970
H        2.173356       -0.435663       -0.914428
H        1.896673        1.145097       -0.127470
N        0.411918       -0.444550        0.058688
N       -0.447731        0.470552        0.009211
10
  Step 12: 12.0 fs
C       -1.754221       -0.070752       -0.018420
H       -2.309999        0.129291        0.807340
H       -2.216498        0.408221       -0.849523
H       -1.710957       -1.204931       -0.231971
C        1.774751        0.053002       -0.031925
H        2.316161       -0.321939        0.877604
H        2.164456       -0.469398       -0.982671
H        1.912712        1.187752       -0.100197
N        0.413768       -0.448401        0.063915
N       -0.442573        0.483130        0.013637
10
  Step 13: 13.0 fs
C       -1.755728       -0.073651       -0.025618
H       -2.301466        0.114529        0.787203
H       -2.261649        0.395550       -0.822734
H       -1.757325       -1.252355       -0.242928
C        1.773255        0.047685       -0.036584
H        2.324178       -0.280872        0.913584
H        2.155434       -0.495526       -1.037837
H        1.924004        1.217755       -0.073176
N        0.414277       -0.451026        0.069034
N       -0.435275        0.494950        0.018425
10
  Step 14: 14.0 fs
C       -1.756245       -0.079799       -0.035445
H       -2.313710        0.108340        0.805903
H       -2.314539        0.389891       -0.810095
H       -1.802061       -1.277334       -0.248315
C        1.773538        0.042901       -0.041631
H        2.329188       -0.240608        0.935486
H        2.144752       -0.509484       -1.070699
H        1.928863        1.228058       -0.049169
N        0.413392       -0.452139        0.073997
N       -0.426224        0.505448        0.023403
10
  Step 15: 15.0 fs
C       -1.756686       -0.088801       -0.046870
H       -2.337828        0.107526        0.851739
H       -2.371235        0.390459       -0.809519
H       -1.841932       -1.276635       -0.248247
C        1.775762        0.038865       -0.046863
H        2.330438       -0.203792        0.940111
H        2.132427       -0.509465       -1.077184
H        1.926370        1.216572       -0.030846
N        0.411200       -0.451610        0.078758
N       -0.415897        0.514236        0.028387
10
  Step 16: 16.0 fs
C       -1.758542       -0.099645       -0.058480
H       -2.360701        0.107738        0.904647
H       -2.425163        0.394276       -0.814608
H       -1.874075       -1.251494       -0.243562
C        1.779793        0.035668       -0.052045
H        2.328588       -0.173512        0.927484
H        2.119506       -0.495725       -1.057210
H        1.916326        1.185385       -0.020548
N        0.407898       -0.449453        0.083283
N       -0.404830        0.521090        0.033203
10
  Step 17: 17.0 fs
C       -1.762930       -0.111043       -0.069232
H       -2.373405        0.106040        0.949204
H       -2.469709        0.398213       -0.818799
H       -1.896367       -1.208058       -0.235811
C        1.785205        0.033253       -0.056902
H        2.325718       -0.152942        0.900833
H        2.108097       -0.470731       -1.014970
H        1.899255        1.140912       -0.020060
N        0.403768       -0.445824        0.087550
N       -0.393596        0.525934        0.037693
10
  Step 18: 18.0 fs
C       -1.770331       -0.121382       -0.078416
H       -2.371932        0.101008        0.976717
H       -2.500101        0.400144       -0.817646
H       -1.907998       -1.159289       -0.227496
C        1.791242        0.031413       -0.060984
H        2.325258       -0.144949        0.866515
H        2.101855       -0.440180       -0.960840
H        1.876418        1.094625       -0.030313
N        0.399163       -0.441014        0.091548
N       -0.382777        0.528832        0.041714
10
  Step 19: 19.0 fs
C       -1.780655       -0.128670       -0.085448
H       -2.355487        0.092160        0.983295
H       -2.514054        0.399191       -0.809338
H       -1.909877       -1.125381       -0.222061
C        1.796832        0.029912       -0.063433
H        2.331461       -0.151481        0.833082
H        2.106499       -0.413996       -0.913242
H        1.849557        1.062062       -0.051150
N        0.394499       -0.435442        0.095267
N       -0.372948        0.529988        0.045139
10
  Step 20: 20.0 fs
C       -1.793416       -0.131188       -0.089861
H       -2.325350        0.079629        0.968534
H       -2.511889        0.395751       -0.794582
H       -1.903655       -1.125916       -0.222762
C        1.800865        0.028721       -0.063164
H        2.348032       -0.172840        0.808787
H        2.128396       -0.403759       -0.893867
H        1.820356        1.056686       -0.081479
N        0.390239       -0.429642        0.098698
N       -0.364648        0.529743        0.047847
10
  Step 21: 21.0 fs
C       -1.807921       -0.128933       -0.091494
H       -2.284717        0.064177        0.935687
H       -2.496714        0.391669       -0.776680
H       -1.889568       -1.163058       -0.230543
C        1.802901        0.028009       -0.059948
H        2.375881       -0.207036        0.797659
H        2.168700       -0.413618       -0.910652
H        1.790356        1.080200       -0.119451
N        0.386860       -0.424209        0.101830
N       -0.358358        0.528547        0.049737
10
  Step 22: 22.0 fs
C       -1.823155       -0.123883       -0.090661
H       -2.239247        0.047379        0.893352
H       -2.474443        0.390414       -0.761520
H       -1.867069       -1.218636       -0.243689
C        1.803575        0.027909       -0.054962
H        2.411771       -0.249675        0.797434
H        2.219501       -0.436106       -0.949688
H        1.761650        1.120705       -0.162099
N        0.384785       -0.419720        0.104657
N       -0.354473        0.526890        0.050720
10
  Step 23: 23.0 fs
C       -1.837595       -0.118566       -0.088283
H       -2.197633        0.031822        0.857841
H       -2.452784        0.396534       -0.756571
H       -1.837218       -1.270542       -0.259662
C        1.804031        0.028503       -0.049655
H        2.449379       -0.294846        0.801484
H        2.269444       -0.460409       -0.990742
H        1.736994        1.161802       -0.205377
N        0.384335       -0.416638        0.107183
N       -0.353268        0.525199        0.050737
10
  Step 24: 24.0 fs
C       -1.849638       -0.114872       -0.085875
H       -2.169759        0.020465        0.850570
H       -2.437800        0.413314       -0.767201
H       -1.802696       -1.303545       -0.276353
C        1.805248        0.029807       -0.044948
H        2.482000       -0.336615        0.802920
H        2.309709       -0.479013       -1.019899
H        1.718997        1.190825       -0.245135
N        0.385682       -0.415234        0.109416
N       -0.354856        0.523756        0.049754
10
  Step 25: 25.0 fs
C       -1.858473       -0.113561       -0.084605
H       -2.160842        0.014492        0.882820
H       -2.430506        0.439866       -0.792444
H       -1.766688       -1.310023       -0.292285
C        1.807821        0.031737       -0.041317
H        2.504591       -0.370147        0.797235
H        2.335124       -0.488175       -1.030419
H        1.709542        1.200799       -0.277922
N        0.388809       -0.415553        0.111363
N       -0.359150        0.522638        0.047775
10
  Step 26: 26.0 fs
C       -1.864375       -0.114316       -0.084194
H       -2.168046        0.012078        0.942517
H       -2.427294        0.470964       -0.824932
H       -1.732153       -1.287884       -0.306529
C        1.811982        0.034132       -0.039019
H        2.514506       -0.392157        0.782924
H        2.343249       -0.486663       -1.020348
H        1.709720        1.189522       -0.301231
N        0.393513       -0.417414        0.113026
N       -0.365870        0.521725        0.044841
10
  Step 27: 27.0 fs
C       -1.868038       -0.116229       -0.083574
H       -2.185158        0.010439        1.006302
H       -2.423357        0.499877       -0.855165
H       -1.701549       -1.239782       -0.318742
C        1.817648        0.036766       -0.038194
H        2.511499       -0.400964        0.761285
H        2.333733       -0.475059       -0.991089
H        1.719896        1.158829       -0.313557
N        0.399421       -0.420470        0.114396
N       -0.374579        0.520747        0.041037
10
  Step 28: 28.0 fs
C       -1.870024       -0.118126       -0.081877
H       -2.207021        0.007546        1.055595
H       -2.415326        0.521143       -0.875464
H       -1.676432       -1.173883       -0.329473
C        1.824426        0.039351       -0.038823
H        2.497786       -0.396647        0.736274
H        2.308394       -0.455898       -0.947545
H        1.739659        1.114849       -0.314606
N        0.406046       -0.424272        0.115458
N       -0.384734        0.519371        0.036487
10
  Step 29: 29.0 fs
C       -1.870737       -0.118515       -0.078549
H       -2.230205        0.002257        1.080000
H       -2.401849        0.531567       -0.881240
H       -1.656726       -1.105658       -0.340929
C        1.831556        0.041521       -0.040573
H        2.478099       -0.381285        0.714490
H        2.271941       -0.434503       -0.899424
H        1.767706        1.069134       -0.305752
N        0.412843       -0.428330        0.116199
N       -0.395727        0.517270        0.031345
10
  Step 30: 30.0 fs
C       -1.870544       -0.115699       -0.073125
H       -2.252478       -0.005986        1.075250
H       -2.383466        0.530509       -0.871148
H       -1.640198       -1.056533       -0.357346
C        1.837892        0.042933       -0.042611
H        2.459142       -0.358899        0.704355
H        2.232637       -0.419878       -0.862576
H        1.802028        1.038203       -0.290164
N        0.419272       -0.432165        0.116614
N       -0.406938        0.514178        0.025782
10
  Step 31: 31.0 fs
C       -1.869640       -0.108679       -0.065313
H       -2.272567       -0.017271        1.041805
H       -2.362480        0.520024       -0.847077
H       -1.624474       -1.042944       -0.382600
C        1.842202        0.043503       -0.043800
H        2.447413       -0.334252        0.713340
H        2.200146       -0.422670       -0.855195
H        1.840673        1.037388       -0.271509
N        0.424854       -0.435335        0.116714
N       -0.417783        0.509920        0.019980
10
  Step 32: 32.0 fs
C       -1.867681       -0.098348       -0.055404
H       -2.290508       -0.031157        0.985190
H       -2.342935        0.504989       -0.814438
H       -1.611095       -1.062160       -0.415342
C        1.843961        0.043528       -0.043676
H        2.445746       -0.310664        0.743513
H        2.179130       -0.447190       -0.884194
H        1.882308        1.069322       -0.251482
N        0.429196       -0.437467        0.116530
N       -0.427752        0.504411        0.014122
10
  Step 33: 33.0 fs
C       -1.863748       -0.087034       -0.044437
H       -2.308718       -0.046723        0.917944
H       -2.330224        0.492593       -0.782003
H       -1.604931       -1.096881       -0.449009
C        1.843788        0.043424       -0.042964
H        2.451522       -0.288835        0.789058
H        2.166631       -0.486059       -0.936741
H        1.925334        1.120832       -0.229555
N        0.432006       -0.438280        0.116107
N       -0.436444        0.497651        0.008391
10
  Step 34: 34.0 fs
C       -1.856706       -0.077011       -0.034067
H       -2.333316       -0.063030        0.860422
H       -2.329418        0.490032       -0.759398
H       -1.610028       -1.130088       -0.476724
C        1.842831        0.043520       -0.042597
H        2.458764       -0.267964        0.839104
H        2.157699       -0.526967       -0.992249
H        1.967146        1.173465       -0.205236
N        0.433121       -0.437620        0.115493
N       -0.443582        0.489723        0.002956
10
  Step 35: 35.0 fs
C       -1.845785       -0.069597       -0.026138
H       -2.372033       -0.079841        0.833219
H       -2.342114        0.500505       -0.751686
H       -1.627867       -1.151112       -0.494072
C        1.842048        0.044054       -0.042999
H        2.461703       -0.247532        0.882876
H        2.149429       -0.560163       -1.034868
H        2.004758        1.212936       -0.179230
N        0.432515       -0.435465        0.114728
N       -0.449002        0.480805       -0.002032
10
  Step 36: 36.0 fs
C       -1.831493       -0.065092       -0.021531
H       -2.425312       -0.097300        0.840313
H       -2.364616        0.521226       -0.756032
H       -1.657750       -1.154913       -0.499175
C        1.842007        0.045181       -0.044161
H        2.456607       -0.227912        0.912700
H        2.140945       -0.580046       -1.055825
H        2.035560        1.231273       -0.153142
N        0.430296       -0.431935        0.113854
N       -0.452630        0.471188       -0.006456
10
  Step 37: 37.0 fs
C       -1.815770       -0.063242       -0.019788
H       -2.482091       -0.114538        0.867074
H       -2.389856        0.545875       -0.764538
H       -1.697516       -1.140516       -0.492112
C        1.842925        0.046971       -0.045913
H        2.442054       -0.210324        0.924685
H        2.132487       -0.584097       -1.051494
H        2.057638        1.225676       -0.128974
N        0.426705       -0.427286        0.112917
N       -0.454465        0.461280       -0.010247
10
  Step 38: 38.0 fs
C       -1.800924       -0.063574       -0.020058
H       -2.528523       -0.129675        0.896445
H       -2.410800        0.568347       -0.769267
H       -1.744062       -1.110609       -0.474671
C        1.844727        0.049402       -0.048038
H        2.418696       -0.196609        0.918544
H        2.125014       -0.572158       -1.022114
H        2.069888        1.197620       -0.108841
N        0.422097       -0.421902        0.111972
N       -0.454588        0.451591       -0.013398
10
  Step 39: 39.0 fs
C       -1.788784       -0.065388       -0.021605
H       -2.555050       -0.140775        0.917786
H       -2.422426        0.584618       -0.764920
H       -1.793815       -1.072270       -0.450607
C        1.847052        0.052351       -0.050273
H        2.389091       -0.189088        0.897593
H        2.120248       -0.546639       -0.971999
H        2.072201        1.152992       -0.094822
N        0.416935       -0.416271        0.111079
N       -0.453187        0.442691       -0.015954
10
  Step 40: 40.0 fs
C       -1.780505       -0.067668       -0.023726
H       -2.557001       -0.146303        0.926514
H       -2.422174        0.592983       -0.749216
H       -1.843450       -1.037506       -0.425839
C        1.849179        0.055582       -0.052209
H        2.357700       -0.190463        0.869084
H        2.121070       -0.513682       -0.911140
H        2.065853        1.103304       -0.088716
N        0.411766       -0.410959        0.110298
N       -0.450583        0.435163       -0.018005
10
  Step 41: 41.0 fs
C       -1.776581       -0.069257       -0.025700
H       -2.533185       -0.145167        0.921934
H       -2.409845        0.593834       -0.722605
H       -1.890756       -1.020688       -0.407251
C        1.849999        0.058820       -0.053109
H        2.330293       -0.203406        0.843494
H        2.132140       -0.484487       -0.856938
H        2.053681        1.065732       -0.091690
N        0.407196       -0.406570        0.109671
N       -0.447223        0.429544       -0.019681
10
  Step 42: 42.0 fs
C       -1.776909       -0.069561       -0.027017
H       -2.485162       -0.136752        0.906375
H       -2.387678        0.589692       -0.688214
H       -1.934402       -1.030320       -0.399239
C        1.848300        0.061889       -0.052026
H        2.312118       -0.229511        0.831217
H        2.159103       -0.472558       -0.829790
H        2.039119        1.057737       -0.103890
N        0.403817       -0.403667        0.109198
N       -0.443600        0.426254       -0.021132
10
  Step 43: 43.0 fs
C       -1.780862       -0.069142       -0.027618
H       -2.417517       -0.121096        0.885625
H       -2.360654        0.585475       -0.652028
H       -1.972540       -1.062278       -0.401144
C        1.843613        0.064696       -0.048658
H        2.305222       -0.267596        0.836885
H        2.203620       -0.483070       -0.837591
H        2.023888        1.084909       -0.124120
N        0.402105       -0.402686        0.108838
N       -0.440164        0.425528       -0.022507
10
  Step 44: 44.0 fs
C       -1.787268       -0.069369       -0.027926
H       -2.338717       -0.099150        0.870409
H       -2.336197        0.588210       -0.622331
H       -2.002595       -1.103745       -0.408913
C        1.836769        0.067130       -0.043805
H        2.307328       -0.312800        0.856378
H        2.258940       -0.507061       -0.867893
H        2.007157        1.135344       -0.149583
N        0.402328       -0.403860        0.108504
N       -0.437229        0.427371       -0.023941
10
  Step 45: 45.0 fs
C       -1.794592       -0.071550       -0.028853
H       -2.260355       -0.072554        0.876419
H       -2.321741        0.604507       -0.606671
H       -2.022612       -1.141532       -0.418057
C        1.829235        0.069128       -0.038449
H        2.313672       -0.357894        0.880228
H        2.314228       -0.531102       -0.901847
H        1.987424        1.189689       -0.176401
N        0.404493       -0.407174        0.108077
N       -0.434915        0.431540       -0.025553
10
  Step 46: 46.0 fs
C       -1.801762       -0.076252       -0.031415
H       -2.191379       -0.042747        0.916218
H       -2.320511        0.635640       -0.606936
H       -2.031949       -1.166301       -0.424982
C        1.822253        0.070675       -0.033154
H        2.319756       -0.395874        0.899365
H        2.360515       -0.545819       -0.926158
H        1.964040        1.232125       -0.200780
N        0.408356       -0.412361        0.107409
N       -0.433117        0.437567       -0.027446
10
  Step 47: 47.0 fs
C       -1.808829       -0.083079       -0.035655
H       -2.132085       -0.010988        0.984927
H       -2.330033        0.675289       -0.617783
H       -2.031060       -1.173093       -0.427247
C        1.816592        0.071750       -0.028153
H        2.322624       -0.421524        0.907970
H        2.392239       -0.546664       -0.934164
H        1.937304        1.253401       -0.219736
N        0.413484       -0.418965        0.106342
N       -0.431549        0.444828       -0.029710
10
  Step 48: 48.0 fs
C       -1.816336       -0.090908       -0.040487
H       -2.078581        0.020476        1.062306
H       -2.345129        0.713346       -0.630717
H       -2.021209       -1.161124       -0.423751
C        1.812625        0.072320       -0.023565
H        2.321023       -0.431770        0.903845
H        2.406573       -0.532313       -0.923659
H        1.908115        1.249774       -0.231201
N        0.419326       -0.426433        0.104731
N       -0.429846        0.452617       -0.032412
10
  Step 49: 49.0 fs
C       -1.824475       -0.098299       -0.044650
H       -2.029189        0.048667        1.128474
H       -2.361214        0.740881       -0.638563
H       -2.004448       -1.134117       -0.415005
C        1.810410        0.072342       -0.019479
H        2.315210       -0.425557        0.888033
H        2.402836       -0.503649       -0.895548
H        1.877739        1.222013       -0.233968
N        0.425290       -0.434204        0.102461
N       -0.427668        0.460238       -0.035590
10
  Step 50: 50.0 fs
C       -1.832969       -0.103692       -0.047170
H       -1.984845        0.070915        1.171251
H       -2.375436        0.752174       -0.636969
H       -1.983610       -1.101055       -0.403457
C        1.809687        0.071763       -0.015934
H        2.306955       -0.403877        0.864774
H        2.382693       -0.463778       -0.853955
H        1.847636        1.175514       -0.227773
N        0.430809       -0.441790        0.099455
N       -0.424744        0.467066       -0.039252
10
  Step 51: 51.0 fs
C       -1.841277       -0.105532       -0.047289
H       -1.947523        0.085267        1.185071
H       -2.386689        0.744975       -0.624355
H       -1.961878       -1.075525       -0.393299
C        1.809788        0.070492       -0.012791
H        2.299656       -0.369904        0.841605
H        2.351158       -0.418796       -0.807514
H        1.819210        1.121623       -0.213638
N        0.435380       -0.448809        0.095676
N       -0.420881        0.472596       -0.043390
10
  Step 52: 52.0 fs
C       -1.848796       -0.102737       -0.044464
H       -1.919292        0.090532        1.168917
H       -2.395514        0.720420       -0.601603
H       -1.941665       -1.070192       -0.388541
C        1.809571        0.068410       -0.009504
H        2.298108       -0.328692        0.828619
H        2.317948       -0.378675       -0.771122
H        1.793309        1.077964       -0.194073
N        0.438601       -0.454997        0.091134
N       -0.415957        0.476468       -0.047993
10
  Step 53: 53.0 fs
C       -1.854956       -0.095520       -0.038567
H       -1.901958        0.086308        1.125695
H       -2.404433        0.683466       -0.572232
H       -1.923664       -1.087606       -0.389800
C        1.807719        0.065478       -0.005116
H        2.306857       -0.285540        0.834953
H        2.295790       -0.355132       -0.763307
H        1.769784        1.063237       -0.172279
N        0.440184       -0.460202        0.085881
N       -0.409917        0.478480       -0.053053
10
  Step 54: 54.0 fs
C       -1.859130       -0.085598       -0.030061
H       -1.896911        0.073238        1.063850
H       -2.418346        0.642999       -0.542581
H       -1.907446       -1.117946       -0.393567
C        1.803693        0.061890        0.000946
H        2.327171       -0.243554        0.863042
H        2.291666       -0.353455       -0.792977
H        1.748038        1.084566       -0.150114
N        0.439972       -0.464382        0.080018
N       -0.402807        0.478593       -0.058567
10
  Step 55: 55.0 fs
C       -1.860577       -0.075366       -0.020158
H       -1.905022        0.053403        1.000946
H       -2.443828        0.609907       -0.520733
H       -1.892668       -1.147148       -0.395086
C        1.798324        0.058124        0.008127
H        2.355339       -0.203130        0.905997
H        2.300311       -0.367244       -0.848537
H        1.728246        1.130967       -0.127451
N        0.437941       -0.467595        0.073681
N       -0.394805        0.476920       -0.064529
10
  Step 56: 56.0 fs
C       -1.858726       -0.066723       -0.011109
H       -1.926797        0.030235        0.965312
H       -2.485010        0.591089       -0.512305
H       -1.879381       -1.164529       -0.391004
C        1.793037        0.054843        0.015464
H        2.384527       -0.163904        0.951811
H        2.311423       -0.385499       -0.908719
H        1.711374        1.183390       -0.103882
N        0.434215       -0.469989        0.067025
N       -0.386245        0.473711       -0.070913
10
  Step 57: 57.0 fs
C       -1.853608       -0.060318       -0.005293
H       -1.962544        0.006398        0.981426
H       -2.538572        0.584712       -0.516193
H       -1.867751       -1.164664       -0.380028