10
  Step 0: 0.0 fs
C       -1.803708       -0.067739        0.000064
H       -2.311486        0.330648        0.889283
H       -2.311366        0.329992       -0.889456
H       -1.816428       -1.165813        0.000642
C        1.803675        0.067715        0.000027
H        2.310897       -0.329694        0.890039
H        2.312179       -0.330877       -0.888640
H        1.816219        1.165780       -0.000421
N        0.410954       -0.460073       -0.000154
N       -0.410928        0.460086       -0.000131
10
  Step 1: 1.0 fs
C       -1.798793       -0.058215       -0.005436
H       -2.307754        0.348101        0.927718
H       -2.274394        0.328235       -0.863643
H       -1.761878       -1.169978       -0.013007
C        1.797235        0.060090        0.011615
H        2.309116       -0.326834        0.861843
H        2.298432       -0.301996       -0.958574
H        1.837873        1.268434       -0.040727
N        0.406252       -0.454750        0.003717
N       -0.412217        0.442634       -0.002897
10
  Step 2: 2.0 fs
C       -1.793585       -0.049486       -0.009239
H       -2.299668        0.360903        0.956688
H       -2.245617        0.332107       -0.849907
H       -1.710979       -1.170380       -0.025931
C        1.790968        0.054638        0.021042
H        2.312980       -0.327644        0.841864
H        2.279433       -0.271028       -1.015699
H        1.857556        1.346173       -0.077273
N        0.402153       -0.450202        0.007683
N       -0.413854        0.426341       -0.005646
10
  Step 3: 3.0 fs
C       -1.787804       -0.042260       -0.010209
H       -2.285118        0.366393        0.970419
H       -2.231105        0.345812       -0.857157
H       -1.667402       -1.164735       -0.037580
C        1.784873        0.052323        0.026795
H        2.326767       -0.334768        0.835601
H        2.252931       -0.237984       -1.051828
H        1.873599        1.389592       -0.106689
N        0.399278       -0.447185        0.011845
N       -0.416178        0.412338       -0.008367
10
  Step 4: 4.0 fs
C       -1.781574       -0.036784       -0.008415
H       -2.264054        0.363769        0.966971
H       -2.230706        0.368534       -0.883448
H       -1.634422       -1.152875       -0.047637
C        1.779134        0.053410        0.028409
H        2.350119       -0.347715        0.841460
H        2.218951       -0.204268       -1.063273
H        1.884707        1.396102       -0.126463
N        0.398130       -0.446321        0.016305
N       -0.419404        0.401587       -0.011058
10
  Step 5: 5.0 fs
C       -1.775388       -0.032848       -0.005010
H       -2.238288        0.353900        0.948177
H       -2.238989        0.394936       -0.917319
H       -1.614536       -1.136737       -0.055986
C        1.774190        0.057762        0.026340
H        2.378029       -0.363030        0.851642
H        2.179256       -0.172234       -1.050463
H        1.889806        1.366101       -0.134682
N        0.398956       -0.447979        0.021150
N       -0.423504        0.394748       -0.013719
10
  Step 6: 6.0 fs
C       -1.769716       -0.030136       -0.001558
H       -2.211627        0.339406        0.920029
H       -2.249648        0.418949       -0.946020
H       -1.609192       -1.119828       -0.062741
C        1.770475        0.065061        0.021571
H        2.404009       -0.376426        0.857118
H        2.137256       -0.145123       -1.018401
H        1.888003        1.302417       -0.129843
N        0.401666       -0.452204        0.026449
N       -0.428145        0.392088       -0.016361
10
  Step 7: 7.0 fs
C       -1.764773       -0.028466        0.000402
H       -2.189766        0.324633        0.892687
H       -2.258242        0.436266       -0.960816
H       -1.618670       -1.106431       -0.068239
C        1.768125        0.074805        0.015438
H        2.422987       -0.384674        0.851379
H        2.098285       -0.127208       -0.978138
H        1.878772        1.212228       -0.111002
N        0.405839       -0.458701        0.032242
N       -0.432710        0.393452       -0.018990
10
  Step 8: 8.0 fs
C       -1.760560       -0.027806       -0.000415
H       -2.178978        0.314590        0.878066
H       -2.262501        0.444706       -0.957566
H       -1.642134       -1.100455       -0.072932
C        1.766855        0.085830        0.009637
H        2.432241       -0.386172        0.831362
H        2.069193       -0.123524       -0.946947
H        1.862587        1.112871       -0.078521
N        0.410839       -0.466906        0.038535
N       -0.436420        0.398324       -0.021598
10
  Step 9: 9.0 fs
C       -1.757128       -0.028128       -0.004545
H       -2.182722        0.312175        0.883107
H       -2.262033        0.444004       -0.936122
H       -1.677839       -1.103989       -0.077200
C        1.766055        0.095340        0.005745
H        2.431572       -0.381118        0.797516
H        2.055845       -0.137929       -0.941796
H        1.841881        1.041479       -0.034939
N        0.415968       -0.476097        0.045298
N       -0.438501        0.405931       -0.024157
10
  Step 10: 10.0 fs
C       -1.754766       -0.029336       -0.011368
H       -2.198946        0.316098        0.904372
H       -2.258253        0.435800       -0.900087
H       -1.723372       -1.116175       -0.081160
C        1.765216        0.099312        0.003946
H        2.423442       -0.371758        0.753876
H        2.058995       -0.169040       -0.966056
H        1.820014        1.046445        0.016910
N        0.420597       -0.485509        0.052470
N       -0.438332        0.415368       -0.026622
10
  Step 11: 11.0 fs
C       -1.753820       -0.031433       -0.019353
H       -2.221615        0.322268        0.931268
H       -2.254749        0.423989       -0.857175
H       -1.775765       -1.133223       -0.084643
C        1.764329        0.097511        0.002641
H        2.413391       -0.362676        0.708174
H        2.073942       -0.208990       -1.007123
H        1.796845        1.127173        0.076062
N        0.424217       -0.494445        0.059961
N       -0.435538        0.425689       -0.028939
10
  Step 12: 12.0 fs
C       -1.754375       -0.034687       -0.026659
H       -2.244331        0.326647        0.953199
H       -2.257335        0.414751       -0.818822
H       -1.831583       -1.149811       -0.087365
C        1.763374        0.093894        0.000057
H        2.409639       -0.360013        0.670702
H        2.094358       -0.247975       -1.048660
H        1.771329        1.232787        0.137736
N        0.426488       -0.502312        0.067662
N       -0.430039        0.436001       -0.031059
10
  Step 13: 13.0 fs
C       -1.756250       -0.039462       -0.031724
H       -2.262348        0.326625        0.963304
H       -2.272185        0.414753       -0.796622
H       -1.887145       -1.161047       -0.089187
C        1.762107        0.091414       -0.004814
H        2.419252       -0.368306        0.649770
H        2.115000       -0.278334       -1.079094
H        1.744730        1.324380        0.195090
N        0.427275       -0.508611        0.075440
N       -0.422033        0.445518       -0.032947
10
  Step 14: 14.0 fs
C       -1.759375       -0.045783       -0.033872
H       -2.272898        0.321099        0.958717
H       -2.301191        0.426926       -0.795121
H       -1.938893       -1.163873       -0.090217
C        1.760629        0.090995       -0.012019
H        2.442595       -0.386940        0.646324
H        2.132275       -0.295416       -1.092569
H        1.719049        1.384599        0.243099
N        0.426610       -0.512958        0.083155
N       -0.411928        0.453601       -0.034588
10
  Step 15: 15.0 fs
C       -1.764062       -0.053075       -0.033537
H       -2.275020        0.310274        0.939977
H       -2.339128        0.447942       -0.808646
H       -1.983769       -1.157714       -0.090879
C        1.759563        0.092408       -0.020795
H        2.472665       -0.410264        0.654068
H        2.143998       -0.296873       -1.087431
H        1.696069        1.407183        0.278589
N        0.424642       -0.515116        0.090670
N       -0.400271        0.459779       -0.035980
10
  Step 16: 16.0 fs
C       -1.770716       -0.060413       -0.031777
H       -2.269571        0.295654        0.910807
H       -2.377121        0.471104       -0.826932
H       -2.019568       -1.144535       -0.091896
C        1.759649        0.095100       -0.030033
H        2.500225       -0.431368        0.664735
H        2.149267       -0.282147       -1.065336
H        1.677305        1.390608        0.299477
N        0.421599       -0.515022        0.097865
N       -0.387694        0.463756       -0.037139
10
  Step 17: 17.0 fs
C       -1.779418       -0.066905       -0.029784
H       -2.259461        0.280165        0.878410
H       -2.407443        0.490351       -0.841402
H       -2.045138       -1.128545       -0.094222
C        1.761326        0.098646       -0.038571
H        2.518280       -0.445167        0.672134
H        2.148665       -0.252426       -1.031426
H        1.664128        1.335936        0.304417
N        0.417780       -0.512791        0.104645
N       -0.374868        0.465418       -0.038098
10
  Step 18: 18.0 fs
C       -1.789798       -0.071884       -0.028719
H       -2.249493        0.267995        0.853134
H       -2.425322        0.501800       -0.847008
H       -2.060371       -1.115382       -0.098864
C        1.764601        0.102793       -0.045176
H        2.523126       -0.449066        0.672842
H        2.144771       -0.211014       -0.995440
H        1.657747        1.247405        0.293090
N        0.413535       -0.508726        0.110939
N       -0.362478        0.464842       -0.038913
10
  Step 19: 19.0 fs
C       -1.801214       -0.074944       -0.029527
H       -2.244802        0.263299        0.845649
H       -2.428806        0.503780       -0.841904
H       -2.065898       -1.110497       -0.106585
C        1.769100        0.107081       -0.048622
H        2.514040       -0.442720        0.665769
H        2.142274       -0.163159       -0.971734
H        1.658669        1.136475        0.267640
N        0.409262       -0.503309        0.116706
N       -0.351200        0.462299       -0.039674
10
  Step 20: 20.0 fs
C       -1.813119       -0.075903       -0.032495
H       -2.247653        0.267563        0.860750
H       -2.418378        0.496633       -0.826906
H       -2.062463       -1.116794       -0.117523
C        1.774386        0.109851       -0.048362
H        2.492960       -0.427793        0.651797
H        2.145948       -0.114173       -0.974234
H        1.665177        1.031183        0.235984
N        0.405402       -0.497164        0.121941
N       -0.341678        0.458242       -0.040502
10
  Step 21: 21.0 fs
C       -1.825209       -0.074829       -0.036931
H       -2.255811        0.278118        0.893524
H       -2.397061        0.482933       -0.805680
H       -2.050542       -1.133047       -0.130975
C        1.780428        0.107310       -0.045645
H        2.464729       -0.408112        0.634060
H        2.156612       -0.066468       -1.006272
H        1.671445        0.984013        0.214544
N        0.402418       -0.490982        0.126659
N       -0.334503        0.453259       -0.041539
10
  Step 22: 22.0 fs
C       -1.837193       -0.072190       -0.041405
H       -2.264694        0.289857        0.932862
H       -2.370789        0.467945       -0.785312
H       -2.030491       -1.154275       -0.145600
C        1.787258        0.097016       -0.042728
H        2.437583       -0.390031        0.618623
H        2.170077       -0.019924       -1.057252
H        1.672394        1.030948        0.214682
N        0.400756       -0.485425        0.130902
N       -0.330203        0.447995       -0.042922
10
  Step 23: 23.0 fs
C       -1.848516       -0.068866       -0.044274
H       -2.270450        0.298069        0.967747
H       -2.347879        0.459283       -0.775888
H       -2.003086       -1.173930       -0.159875
C        1.794016        0.082975       -0.040753
H        2.422553       -0.381808        0.614324
H        2.180813        0.025207       -1.111153
H        1.672253        1.133214        0.226009
N        0.400779       -0.481045        0.134718
N       -0.329203        0.443046       -0.044760
10
  Step 24: 24.0 fs
C       -1.858529       -0.065768       -0.044271
H       -2.271055        0.299722        0.990283
H       -2.335550        0.463571       -0.786093
H       -1.969847       -1.186247       -0.172506
C        1.799791        0.070129       -0.040369
H        2.428050       -0.389123        0.627803
H        2.184830        0.067356       -1.154211
H        1.676646        1.239137        0.236368
N        0.402709       -0.478173        0.138143
N       -0.331739        0.438856       -0.047111
10
  Step 25: 25.0 fs
C       -1.866916       -0.063267       -0.041158
H       -2.266251        0.293607        0.996474
H       -2.335057        0.481117       -0.816024
H       -1.932942       -1.187678       -0.182628
C        1.804560        0.060703       -0.041658
H        2.452740       -0.410076        0.656132
H        2.180290        0.104305       -1.177703
H        1.687616        1.322135        0.241084
N        0.406571       -0.476864        0.141191
N       -0.337778        0.435638       -0.049973
10
  Step 26: 26.0 fs
C       -1.873747       -0.061068       -0.035796
H       -2.257212        0.280082        0.986097
H       -2.341645        0.505253       -0.856041
H       -1.894914       -1.177454       -0.189859
C        1.809008        0.055075       -0.043945
H        2.487007       -0.436957        0.688105
H        2.167129        0.133852       -1.177925
H        1.705061        1.371801        0.239396
N        0.412148       -0.476916        0.143844
N       -0.347001        0.433363       -0.053277
10
  Step 27: 27.0 fs
C       -1.879121       -0.058627       -0.029599
H       -2.246493        0.261037        0.963063
H       -2.349224        0.527411       -0.893567
H       -1.858312       -1.157646       -0.194359
C        1.813830        0.053023       -0.046287
H        2.520368       -0.461829        0.712030
H        2.146659        0.154166       -1.155605
H        1.728097        1.384626        0.231937
N        0.419009       -0.477938        0.146060
N       -0.358836        0.431807       -0.056905
10
  Step 28: 28.0 fs
C       -1.882899       -0.055526       -0.024073
H       -2.238109        0.239889        0.935853
H       -2.353646        0.541277       -0.918993
H       -1.825432       -1.132839       -0.196785
C        1.819357        0.054274       -0.047738
H        2.545571       -0.479379        0.720175
H        2.121556        0.163992       -1.116274
H        1.755587        1.360038        0.219903
N        0.426575       -0.479440        0.147782
N       -0.372538        0.430644       -0.060707
10
  Step 29: 29.0 fs
C       -1.884750       -0.051561       -0.020630
H       -2.237079        0.221003        0.916483
H       -2.353048        0.543573       -0.926983
H       -1.798036       -1.109242       -0.198200
C        1.825516        0.058561       -0.047271
H        2.558937       -0.487056        0.709052
H        2.096015        0.162812       -1.071436
H        1.786216        1.299717        0.205001
N        0.434194       -0.480924        0.148964
N       -0.387267        0.429531       -0.064521
10
  Step 30: 30.0 fs
C       -1.884348       -0.046684       -0.020201
H       -2.247425        0.207821        0.915189
H       -2.347434        0.533729       -0.916158
H       -1.777297       -1.093082       -0.199722
C        1.831935        0.065450       -0.043759
H        2.559750       -0.484679        0.678647
H        2.075252        0.150813       -1.038265
H        1.818439        1.209134        0.189770
N        0.441214       -0.481946        0.149582
N       -0.402169        0.428176       -0.068196
10
  Step 31: 31.0 fs
C       -1.881617       -0.040991       -0.022662
H       -2.269338        0.200728        0.932978
H       -2.338479        0.513690       -0.888962
H       -1.764014       -1.088302       -0.201971
C        1.838123        0.073960       -0.036598
H        2.550223       -0.474618        0.632307
H        2.063408        0.128195       -1.032910
H        1.850474        1.102743        0.178427
N        0.447053       -0.482155        0.149645
N       -0.416442        0.426383       -0.071596
10
  Step 32: 32.0 fs
C       -1.876720       -0.034904       -0.026733
H       -2.298510        0.197299        0.960761
H       -2.329870        0.488281       -0.852333
H       -1.758872       -1.094846       -0.204721
C        1.843577        0.081783       -0.026940
H        2.536263       -0.462650        0.577304
H        2.060665        0.094900       -1.057977
H        1.880941        1.014203        0.178466
N        0.451243       -0.481289        0.149193
N       -0.429383        0.424053       -0.074610
10
  Step 33: 33.0 fs
C       -1.869813       -0.029338       -0.030546
H       -2.328683        0.194585        0.986359
H       -2.327600        0.465199       -0.817790
H       -1.762439       -1.108913       -0.207045
C        1.847567        0.085285       -0.017820
H        2.527747       -0.458345        0.524475
H        2.063469        0.052422       -1.099969
H        1.910722        0.994738        0.200118
N        0.453473       -0.479167        0.148289
N       -0.440419        0.421178       -0.077147
10
  Step 34: 34.0 fs
C       -1.860960       -0.025457       -0.032386
H       -2.354259        0.190659        1.000638
H       -2.338454        0.452790       -0.798102
H       -1.774865       -1.125032       -0.207853
C        1.849241        0.083898       -0.011864
H        2.535546       -0.472330        0.484737
H        2.067652        0.004894       -1.141287
H        1.941745        1.057400        0.244688
N        0.453585       -0.475709        0.147002
N       -0.449132        0.417835       -0.079149
10
  Step 35: 35.0 fs
C       -1.850497       -0.024056       -0.031475
H       -2.371250        0.184779        0.998993
H       -2.365144        0.454730       -0.798914
H       -1.795583       -1.138207       -0.206344
C        1.848619        0.081422       -0.009443
H        2.563059       -0.508407        0.462370
H        2.070237       -0.042451       -1.169425
H        1.972129        1.155531        0.298674
N        0.451556       -0.470947        0.145403
N       -0.455255        0.414168       -0.080587
10
  Step 36: 36.0 fs
C       -1.839346       -0.025186       -0.028338
H       -2.377478        0.177188        0.981019
H       -2.402459        0.467042       -0.813925
H       -1.823241       -1.145141       -0.202235
C        1.846765        0.080354       -0.009676
H        2.601182       -0.558819        0.452862
H        2.069530       -0.084822       -1.178035
H        1.998864        1.246696        0.348919
N        0.447498       -0.464999        0.143556
N       -0.458657        0.410380       -0.081462
10
  Step 37: 37.0 fs
C       -1.828712       -0.028445       -0.024199
H       -2.372612        0.168942        0.949922
H       -2.440595        0.482191       -0.831451
H       -1.855856       -1.144598       -0.195784
C        1.844972        0.080999       -0.011549
H        2.635948       -0.610848        0.449200
H        2.064846       -0.118489       -1.165532
H        2.020231        1.310557        0.388184
N        0.441663       -0.458069        0.141534
N       -0.459360        0.406725       -0.081809
10
  Step 38: 38.0 fs
C       -1.819545       -0.033373       -0.020340
H       -2.358546        0.161946        0.912528
H       -2.470663        0.493918       -0.842121
H       -1.891089       -1.137436       -0.187756
C        1.844118        0.082903       -0.014236
H        2.656771       -0.654148        0.446734
H        2.056364       -0.140894       -1.134161
H        2.035481        1.339297        0.413042
N        0.434437       -0.450457        0.139428
N       -0.457557        0.403510       -0.081694
10
  Step 39: 39.0 fs
C       -1.812295       -0.039577       -0.017922
H       -2.339528        0.158897        0.879072
H       -2.486919        0.498638       -0.840979
H       -1.926525       -1.126467       -0.179301
C        1.844562        0.085626       -0.016942
H        2.658169       -0.682580        0.443546
H        2.045168       -0.150819       -1.090204
H        2.044330        1.330513        0.421873
N        0.426328       -0.442567        0.137350
N       -0.453622        0.401087       -0.081222
10
  Step 40: 40.0 fs
C       -1.806968       -0.046711       -0.017900
H       -2.321161        0.162805        0.861205
H       -2.486729        0.495101       -0.826788
H       -1.959976       -1.115892       -0.171636
C        1.846256        0.088940       -0.018682
H        2.638580       -0.693439        0.439474
H        2.033339       -0.148724       -1.044811
H        2.046742        1.284534        0.414090
N        0.417938       -0.434902        0.135436
N       -0.448090        0.399847       -0.080537
10
  Step 41: 41.0 fs
C       -1.803433       -0.054408       -0.020652
H       -2.307062        0.175565        0.866348
H       -2.470134        0.483939       -0.801138
H       -1.989702       -1.110267       -0.165668
C        1.848835        0.092751       -0.018313
H        2.599464       -0.686894        0.435467
H        2.023682       -0.136868       -1.013201
H        2.043034        1.204821        0.390402
N        0.409941       -0.428029        0.133829
N       -0.441625        0.400198       -0.079815
10
  Step 42: 42.0 fs
C       -1.801662       -0.062312       -0.025587
H       -2.296029        0.196350        0.892616
H       -2.440035        0.467789       -0.768434
H       -2.014376       -1.112897       -0.161616
C        1.851667        0.096689       -0.015134
H        2.545198       -0.666209        0.433473
H        2.018566       -0.118157       -1.008825
H        2.034488        1.101764        0.354362
N        0.403022       -0.422518        0.132661
N       -0.434947        0.402523       -0.079255
10
  Step 43: 43.0 fs
C       -1.801580       -0.070249       -0.031233
H       -2.283434        0.221618        0.930271
H       -2.402902        0.451878       -0.736458
H       -2.032851       -1.124457       -0.158935
C        1.853790        0.099248       -0.010021
H        2.483742       -0.638844        0.436840
H        2.018400       -0.094089       -1.033747
H        2.024932        1.001784        0.315831
N        0.397795       -0.418830        0.132027
N       -0.428736        0.407097       -0.079045
10
  Step 44: 44.0 fs
C       -1.802779       -0.078398       -0.035761
H       -2.264991        0.246812        0.967829
H       -2.368583        0.443912       -0.716001
H       -2.044046       -1.142737       -0.156648
C        1.853742        0.097152       -0.005838
H        2.426646       -0.617027        0.450745
H        2.021748       -0.064657       -1.076646
H        2.022553        0.955098        0.293408
N        0.394701       -0.417196        0.131956
N       -0.423528        0.413991       -0.079317
10
  Step 45: 45.0 fs
C       -1.804654       -0.087101       -0.037654
H       -2.238789        0.267954        0.996310
H       -2.346566        0.451096       -0.716719
H       -2.047087       -1.163690       -0.153843
C        1.850246        0.088487       -0.005365
H        2.385879       -0.614218        0.480923
H        2.026957       -0.030421       -1.121768
H        2.033489        0.997278        0.299827
N        0.393913       -0.417567        0.132396
N       -0.419617        0.423013       -0.080127
10
  Step 46: 46.0 fs
C       -1.806946       -0.096275       -0.036396
H       -2.205257        0.282271        1.010318
H       -2.339477        0.473999       -0.739588
H       -2.041565       -1.183048       -0.149990
C        1.843681        0.076765       -0.008642
H        2.366755       -0.635374        0.528597
H        2.033009        0.006577       -1.156675
H        2.050872        1.092576        0.323231
N        0.395280       -0.419632        0.133206
N       -0.417025        0.433700       -0.081448
10
  Step 47: 47.0 fs
C       -1.809863       -0.105170       -0.032595
H       -2.166558        0.288298        1.007955
H       -2.342093        0.504705       -0.775275
H       -2.027680       -1.197593       -0.144986
C        1.835490        0.065563       -0.014230
H        2.364310       -0.671063        0.585816
H        2.039388        0.043553       -1.173688
H        2.065281        1.191028        0.348063
N        0.398398       -0.422871        0.134180
N       -0.415541        0.445386       -0.083193
10
  Step 48: 48.0 fs
C       -1.813609       -0.112823       -0.027376
H       -2.126159        0.285958        0.990818
H       -2.347291        0.532539       -0.811341
H       -2.006219       -1.205779       -0.139072
C        1.827027        0.056005       -0.020605
H        2.369601       -0.706306        0.639984
H        2.045907        0.077744       -1.169689
H        2.071968        1.266488        0.366853
N        0.402722       -0.426637        0.135082
N       -0.414813        0.457300       -0.085240
10
  Step 49: 49.0 fs
C       -1.818054       -0.118511       -0.021931
H       -2.088616        0.276870        0.964570
H       -2.350273        0.549291       -0.838258
H       -1.978434       -1.207879       -0.132722
C        1.819172        0.048180       -0.026512
H        2.375807       -0.729878        0.680707
H        2.052711        0.106760       -1.145749
H        2.069277        1.308883        0.377130
N        0.407662       -0.430280        0.135682
N       -0.414442        0.468681       -0.087467
10
  Step 50: 50.0 fs
C       -1.822767       -0.121891       -0.017453
H       -2.059112        0.264516        0.939075
H       -2.348968        0.550364       -0.850576
H       -1.945851       -1.205706       -0.126512
C        1.812380        0.042033       -0.030881
H        2.379233       -0.735986        0.701867
H        2.060511        0.128777       -1.107324
H        2.056868        1.315092        0.378500
N        0.412642       -0.433235        0.135780
N       -0.414041        0.478864       -0.089771
10
  Step 51: 51.0 fs
C       -1.827166       -0.122957       -0.015053
H       -2.042469        0.253506        0.926532
H       -2.343343        0.534271       -0.846343
H       -1.910026       -1.201964       -0.121001
C        1.806813        0.037576       -0.032654
H        2.378439       -0.722864        0.700941
H        2.070818        0.142736       -1.064347
H        2.034923        1.284938        0.371459
N        0.417143       -0.435073        0.135223
N       -0.413288        0.487338       -0.092069
10
  Step 52: 52.0 fs
C       -1.830706       -0.121869       -0.015275
H       -2.041445        0.246990        0.935246
H       -2.335039        0.502307       -0.826841
H       -1.872337       -1.199277       -0.116571
C        1.802391        0.034880       -0.030852
H        2.373749       -0.691958        0.678574
H        2.085894        0.148367       -1.029826
H        2.003990        1.220424        0.357218
N        0.420721       -0.435529        0.133898
N       -0.411950        0.493762       -0.094297
10
  Step 53: 53.0 fs
C       -1.832931       -0.118866       -0.017530
H       -2.055549        0.244181        0.963344
H       -2.327738        0.458980       -0.797317
H       -1.833909       -1.199095       -0.113289
C        1.798848        0.034019       -0.025095
H        2.367551       -0.648224        0.638994
H        2.107528        0.145708       -1.014523
H        1.965227        1.127289        0.338144
N        0.423019       -0.434516        0.131742
N       -0.409902        0.497968       -0.096406
10
  Step 54: 54.0 fs
C       -1.833368       -0.114436       -0.020125
H       -2.081607        0.241274        1.000181
H       -2.327791        0.412481       -0.767898
H       -1.795716       -1.201040       -0.110844
C        1.795713        0.034807       -0.016383
H        2.365504       -0.601485        0.591268
H        2.134970        0.134489       -1.020388
H        1.921099        1.020103        0.319185
N        0.423793       -0.432127        0.128739
N       -0.407138        0.499961       -0.098366
10
  Step 55: 55.0 fs
C       -1.831431       -0.109408       -0.020979
H       -2.115354        0.234445        1.033419
H       -2.343533        0.373095       -0.752033
H       -1.758731       -1.203198       -0.108624
C        1.792201        0.035940       -0.007382
H        2.377190       -0.566356        0.549009
H        2.164331        0.114683       -1.039859
H        1.876239        0.931910        0.310813
N        0.422943       -0.428639        0.124922
N       -0.403764        0.499921       -0.100180
10
  Step 56: 56.0 fs
C       -1.826780       -0.104482       -0.018690
H       -2.152599        0.221545        1.053972
H       -2.380169        0.347096       -0.758335
H       -1.723974       -1.203225       -0.105957
C        1.787558        0.034537       -0.001397
H        2.411719       -0.555809        0.524331
H        2.190341        0.087732       -1.061756
H        1.835843        0.911736        0.328678
N        0.420530       -0.424494        0.120374
N       -0.399991        0.498191       -0.101874
10
  Step 57: 57.0 fs
C       -1.819881       -0.099721       -0.013334
H       -2.189681        0.202183        1.057114
H       -2.433146        0.331739       -0.782090
H       -1.692461       -1.199450       -0.102326