10
  Step 0: 0.0 fs
C       -1.803709       -0.067743        0.000067
H       -2.311467        0.330654        0.889287
H       -2.311397        0.329971       -0.889460
H       -1.816420       -1.165815        0.000639
C        1.803679        0.067709        0.000028
H        2.310893       -0.329708        0.890040
H        2.312194       -0.330863       -0.888640
H        1.816248        1.165790       -0.000405
N        0.410954       -0.460070       -0.000155
N       -0.410933        0.460092       -0.000135
10
  Step 1: 1.0 fs
C       -1.809026       -0.065724        0.001058
H       -2.277867        0.273013        0.857934
H       -2.334358        0.355969       -0.860386
H       -1.823867       -1.234534        0.029034
C        1.795519        0.073202        0.011242
H        2.310360       -0.338919        0.791326
H        2.322806       -0.372224       -0.852429
H        1.869724        1.120441       -0.009124
N        0.410282       -0.452076       -0.001366
N       -0.403515        0.459790       -0.006138
10
  Step 2: 2.0 fs
C       -1.813282       -0.065791        0.000743
H       -2.254716        0.225149        0.847691
H       -2.357434        0.380447       -0.833513
H       -1.830761       -1.285331        0.053929
C        1.786798        0.077840        0.020252
H        2.322033       -0.358911        0.720497
H        2.330592       -0.411191       -0.818875
H        1.922123        1.092402       -0.017866
N        0.409977       -0.444445       -0.002487
N       -0.396770        0.459844       -0.012144
10
  Step 3: 3.0 fs
C       -1.815718       -0.068965       -0.001891
H       -2.249057        0.193130        0.874705
H       -2.380580        0.402191       -0.810042
H       -1.836677       -1.309765        0.072240
C        1.777038        0.081101        0.025693
H        2.355390       -0.398485        0.695970
H        2.333081       -0.445566       -0.790973
H        1.973645        1.093194       -0.026836
N        0.410403       -0.437527       -0.003425
N       -0.391348        0.460616       -0.018161
10
  Step 4: 4.0 fs
C       -1.816576       -0.075137       -0.006175
H       -2.256802        0.175109        0.933243
H       -2.403394        0.420140       -0.789893
H       -1.841252       -1.305286        0.081554
C        1.767260        0.082590        0.028240
H        2.402888       -0.451975        0.710777
H        2.328611       -0.473666       -0.771123
H        2.023364        1.119077       -0.035624
N        0.411822       -0.431609       -0.004092
N       -0.387798        0.462405       -0.024202
10
  Step 5: 5.0 fs
C       -1.816699       -0.083583       -0.010308
H       -2.267506        0.165533        1.002318
H       -2.425102        0.433271       -0.771946
H       -1.844199       -1.273314        0.080220
C        1.759462        0.082205        0.029349
H        2.447574       -0.505035        0.746492
H        2.316471       -0.494293       -0.760306
H        2.067773        1.155003       -0.042998
N        0.414314       -0.426868       -0.004407
N       -0.386496        0.465394       -0.030281
10
  Step 6: 6.0 fs
C       -1.816782       -0.093324       -0.012807
H       -2.272939        0.160102        1.063170
H       -2.444653        0.440652       -0.754545
H       -1.845369       -1.219814        0.067560
C        1.755277        0.080191        0.030022
H        2.476856       -0.546401        0.788764
H        2.296999       -0.506753       -0.758280
H        2.102474        1.185695       -0.047598
N        0.417754       -0.423322       -0.004298
N       -0.387598        0.469597       -0.036404
10
  Step 7: 7.0 fs
C       -1.817180       -0.102955       -0.012927
H       -2.268981        0.156309        1.104822
H       -2.461030        0.441709       -0.736242
H       -1.844838       -1.158087        0.044106
C        1.755576        0.076875        0.030779
H        2.484706       -0.570174        0.828926
H        2.271643       -0.511025       -0.764341
H        2.124143        1.201194       -0.048491
N        0.421830       -0.420816       -0.003706
N       -0.391034        0.474845       -0.042560
10
  Step 8: 8.0 fs
C       -1.817977       -0.110365       -0.010437
H       -2.254281        0.152528        1.122229
H       -2.473676        0.436599       -0.716416
H       -1.842939       -1.111465        0.011410
C        1.760595        0.072495        0.031921
H        2.469344       -0.573981        0.861657
H        2.242822       -0.507888       -0.777893
H        2.131168        1.197085       -0.045251
N        0.426090       -0.419041       -0.002590
N       -0.396522        0.480804       -0.048728
10
  Step 9: 9.0 fs
C       -1.819083       -0.113346       -0.005297
H       -2.229111        0.147462        1.114219
H       -2.482862        0.426530       -0.695621
H       -1.840010       -1.105903       -0.029260
C        1.770090        0.067164        0.033662
H        2.431555       -0.557589        0.883456
H        2.213523       -0.498783       -0.798495
H        2.123601        1.173412       -0.037904
N        0.430008       -0.417592       -0.000940
N       -0.403616        0.487037       -0.054883
10
  Step 10: 10.0 fs
C       -1.820308       -0.111638        0.002438
H       -2.195051        0.140137        1.083088
H       -2.489894        0.413831       -0.675659
H       -1.835866       -1.145869       -0.077597
C        1.783402        0.060832        0.036102
H        2.374402       -0.522724        0.892591
H        2.186733       -0.485397       -0.825411
H        2.103175        1.134576       -0.026899
N        0.433054       -0.416037        0.001224
N       -0.411751        0.493086       -0.060997
10
  Step 11: 11.0 fs
C       -1.821326       -0.107446        0.012203
H       -2.155404        0.130397        1.036192
H       -2.496782        0.401399       -0.659103
H       -1.830072       -1.208203       -0.131340
C        1.799436        0.053248        0.039063
H        2.303995       -0.473959        0.890538
H        2.164944       -0.469186       -0.856910
H        2.073423        1.090295       -0.013136
N        0.434756       -0.413987        0.003847
N       -0.420318        0.498537       -0.067051
10
  Step 12: 12.0 fs
C       -1.821623       -0.103360        0.022506
H       -2.115999        0.119660        0.989017
H       -2.505230        0.391583       -0.648104
H       -1.822644       -1.266341       -0.185529
C        1.816649        0.044078        0.041783
H        2.230527       -0.420203        0.885047
H        2.149989       -0.451118       -0.889749
H        2.039186        1.055396        0.002043
N        0.434748       -0.411151        0.006840
N       -0.428740        0.503065       -0.073035
10
  Step 13: 13.0 fs
C       -1.820589       -0.101161        0.030965
H       -2.084890        0.111212        0.965581
H       -2.515589        0.385386       -0.643114
H       -1.813999       -1.303889       -0.234802
C        1.833261        0.033359        0.042713
H        2.167527       -0.374765        0.892702
H        2.143240       -0.431909       -0.919546
H        2.004799        1.044877        0.017203
N        0.432794       -0.407374        0.010084
N       -0.436528        0.506452       -0.078949
10
  Step 14: 14.0 fs
C       -1.817913       -0.101708        0.035484
H       -2.068173        0.107624        0.985547
H       -2.526678        0.382578       -0.642480
H       -1.804618       -1.313478       -0.274889
C        1.847945        0.021877        0.040222
H        2.125649       -0.349072        0.931056
H        2.145818       -0.412473       -0.942055
H        1.972055        1.063485        0.031356
N        0.428803       -0.402649        0.013439
N       -0.443309        0.508601       -0.084799
10
  Step 15: 15.0 fs
C       -1.813981       -0.104939        0.036079
H       -2.064622        0.106577        1.043363
H       -2.536504        0.382394       -0.643204
H       -1.794851       -1.293426       -0.302933
C        1.860362        0.010747        0.034426
H        2.105513       -0.343157        0.998200
H        2.158596       -0.394158       -0.954709
H        1.940875        1.101359        0.043982
N        0.422839       -0.397111        0.016763
N       -0.448832        0.509545       -0.090587
10
  Step 16: 16.0 fs
C       -1.809585       -0.110197        0.034456
H       -2.068237        0.102661        1.114277
H       -2.543152        0.384172       -0.642077
H       -1.784906       -1.246206       -0.317497
C        1.870620        0.000939        0.027272
H        2.101574       -0.348710        1.072576
H        2.182074       -0.378613       -0.957320
H        1.911557        1.142342        0.054617
N        0.415153       -0.391018        0.019937
N       -0.452977        0.509452       -0.096308
10
  Step 17: 17.0 fs
C       -1.805400       -0.116560        0.032311
H       -2.073746        0.091879        1.175776
H       -2.545355        0.387623       -0.636511
H       -1.774843       -1.179372       -0.318978
C        1.878688       -0.006763        0.020828
H        2.108774       -0.358185        1.132856
H        2.216284       -0.367488       -0.951610
H        1.885350        1.173090        0.062753
N        0.406162       -0.384730        0.022887
N       -0.455748        0.508604       -0.101953
10
  Step 18: 18.0 fs
C       -1.801850       -0.122670        0.030887
H       -2.077979        0.072617        1.214647
H       -2.542823        0.392896       -0.625046
H       -1.764491       -1.108457       -0.310813
C        1.884397       -0.011815        0.016469
H        2.123773       -0.367186        1.166313
H        2.260625       -0.362051       -0.939952
H        1.863887        1.185707        0.067947
N        0.396393       -0.378685        0.025577
N       -0.457263        0.507376       -0.107519
10
  Step 19: 19.0 fs
C       -1.799183       -0.126471        0.031285
H       -2.079227        0.044845        1.224914
H       -2.536289        0.400425       -0.607543
H       -1.753191       -1.059006       -0.300779
C        1.887632       -0.013978        0.014869
H        2.144171       -0.373506        1.167394
H        2.313545       -0.362779       -0.923853
H        1.848639        1.177168        0.069929
N        0.386428       -0.373373        0.028007
N       -0.457728        0.506197       -0.113019
10
  Step 20: 20.0 fs
C       -1.797516       -0.125992        0.034411
H       -2.076695        0.009567        1.205579
H       -2.527423        0.410740       -0.585181
H       -1.740029       -1.056463       -0.298061
C        1.888458       -0.013352        0.016111
H        2.168005       -0.376225        1.135521
H        2.372146       -0.369112       -0.903116
H        1.840655        1.148576        0.068655
N        0.376844       -0.369294        0.030205
N       -0.457406        0.505496       -0.118481
10
  Step 21: 21.0 fs
C       -1.796741       -0.121442        0.040224
H       -2.070434       -0.031277        1.160335
H       -2.518610        0.424357       -0.560258
H       -1.725301       -1.100960       -0.304206
C        1.887136       -0.010412        0.019744
H        2.193753       -0.375570        1.074727
H        2.432130       -0.379497       -0.876208
H        1.840445        1.105430        0.064327
N        0.368174       -0.366894        0.032217
N       -0.456566        0.505647       -0.123934
10
  Step 22: 22.0 fs
C       -1.796461       -0.115204        0.047491
H       -2.061773       -0.074972        1.099384
H       -2.512453        0.441564       -0.535688
H       -1.711287       -1.166924       -0.312627
C        1.884021       -0.006041        0.024787
H        2.220890       -0.373479        0.995073
H        2.488342       -0.391831       -0.841843
H        1.847817        1.058885        0.057400
N        0.360879       -0.366503        0.034104
N       -0.455446        0.506907       -0.129389
10
  Step 23: 23.0 fs
C       -1.796090       -0.109589        0.054185
H       -2.054160       -0.118749        1.042312
H       -2.510866        0.461999       -0.513996
H       -1.700590       -1.228511       -0.317252
C        1.879329       -0.001388        0.029681
H        2.251236       -0.374684        0.914804
H        2.535768       -0.404042       -0.800508
H        1.861966        1.025542        0.048529
N        0.355323       -0.368284        0.035926
N       -0.454235        0.509368       -0.134820
10
  Step 24: 24.0 fs
C       -1.795031       -0.105812        0.057875
H       -2.052922       -0.161200        1.015534
H       -2.514287        0.484310       -0.496309
H       -1.694914       -1.270228       -0.315689
C        1.872934        0.002648        0.032609
H        2.289523       -0.386385        0.857536
H        2.570497       -0.414611       -0.755264
H        1.881985        1.021404        0.038326
N        0.351750       -0.372190        0.037730
N       -0.453034        0.512933       -0.140156
10
  Step 25: 25.0 fs
C       -1.793062       -0.104174        0.057157
H       -2.060981       -0.202465        1.034196
H       -2.521641        0.506257       -0.482117
H       -1.695015       -1.284916       -0.308140
C        1.864689        0.005978        0.032688
H        2.338679       -0.412619        0.837995
H        2.590375       -0.422960       -0.711420
H        1.907202        1.049931        0.027394
N        0.350268       -0.377972        0.039535
N       -0.451841        0.517341       -0.145283
10
  Step 26: 26.0 fs
C       -1.790651       -0.104651        0.052982
H       -2.074449       -0.241173        1.085970
H       -2.530978        0.525223       -0.469850
H       -1.700958       -1.270620       -0.296210
C        1.855136        0.009120        0.030812
H        2.392479       -0.447907        0.850445
H        2.595085       -0.429499       -0.675152
H        1.936425        1.098350        0.016573
N        0.350840       -0.385198        0.041308
N       -0.450538        0.522203       -0.150068
10
  Step 27: 27.0 fs
C       -1.788557       -0.107111        0.047419
H       -2.086439       -0.273644        1.146073
H       -2.540185        0.538786       -0.457658
H       -1.712307       -1.229363       -0.282323
C        1.845328        0.012647        0.028639
H        2.439011       -0.481571        0.879212
H        2.585721       -0.435314       -0.651840
H        1.967295        1.148288        0.006859
N        0.353298       -0.393318        0.042985
N       -0.448939        0.527050       -0.154367
10
  Step 28: 28.0 fs
C       -1.787349       -0.111037        0.042170
H       -2.092051       -0.296401        1.195701
H       -2.547609        0.545285       -0.444067
H       -1.728124       -1.168471       -0.269941
C        1.836166        0.016960        0.027441
H        2.468763       -0.505057        0.911387
H        2.564144       -0.441686       -0.644932
H        1.996849        1.185420       -0.000930
N        0.357383       -0.401719        0.044491
N       -0.446846        0.531385       -0.158042
10
  Step 29: 29.0 fs
C       -1.787311       -0.115182        0.038432
H       -2.089005       -0.307521        1.224882
H       -2.552445        0.544231       -0.428347
H       -1.746906       -1.103572       -0.264399
C        1.828213        0.022226        0.027908
H        2.476855       -0.513698        0.939008
H        2.532320       -0.449598       -0.655596
H        2.022283        1.201697       -0.006319
N        0.362776       -0.409802        0.045759
N       -0.444098        0.534734       -0.160971
10
  Step 30: 30.0 fs
C       -1.788486       -0.117532        0.037213
H       -2.076655       -0.306554        1.229444
H       -2.555007        0.536631       -0.410685
H       -1.766871       -1.059393       -0.273411
C        1.821817        0.028333        0.030282
H        2.461844       -0.505655        0.957248
H        2.491670       -0.459246       -0.682610
H        2.041365        1.194416       -0.009156
N        0.369125       -0.417018        0.046742
N       -0.440593        0.536669       -0.163059
10
  Step 31: 31.0 fs
C       -1.790667       -0.116438        0.039225
H       -2.055306       -0.294210        1.208875
H       -2.556884        0.525136       -0.392225
H       -1.786904       -1.056857       -0.303677
C        1.817195        0.034880        0.034467
H        2.424677       -0.481074        0.963272
H        2.442838       -0.469758       -0.722404
H        2.052661        1.165383       -0.009609
N        0.376065       -0.422903        0.047413
N       -0.436285        0.536840       -0.164249
10
  Step 32: 32.0 fs
C       -1.793419       -0.112461        0.044234
H       -2.026087       -0.272270        1.166321
H       -2.560725        0.513705       -0.374918
H       -1.806855       -1.091131       -0.353225
C        1.814369        0.041160        0.040061
H        2.368531       -0.442031        0.956352
H        2.386187       -0.479376       -0.769495
H        2.055838        1.121323       -0.008244
N        0.383230       -0.427089        0.047772
N       -0.431171        0.535002       -0.164521
10
  Step 33: 33.0 fs
C       -1.796232       -0.107722        0.050842
H       -1.991299       -0.243856        1.110648
H       -2.569126        0.506300       -0.360921
H       -1.826493       -1.137936       -0.411518
C        1.812993        0.046180        0.046313
H        2.299523       -0.393276        0.939460
H        2.322658       -0.486031       -0.817345
H        2.052116        1.074990       -0.006221
N        0.390267       -0.429323        0.047841
N       -0.425297        0.531035       -0.163904
10
  Step 34: 34.0 fs
C       -1.798635       -0.103844        0.056778
H       -1.954827       -0.213710        1.059865
H       -2.582954        0.505239       -0.351607
H       -1.845227       -1.175963       -0.467278
C        1.812200        0.048890        0.051988
H        2.227659       -0.343272        0.922138
H        2.254437       -0.488012       -0.859439
H        2.044256        1.044175       -0.005372
N        0.396852       -0.429487        0.047670
N       -0.418776        0.524960       -0.162469
10
  Step 35: 35.0 fs
C       -1.800318       -0.101405        0.059280
H       -1.921335       -0.187213        1.039561
H       -2.600446        0.510464       -0.346789
H       -1.862419       -1.193603       -0.512336
C        1.810797        0.048834        0.055327
H        2.165944       -0.303572        0.921659
H        2.185121       -0.484562       -0.890447
H        2.034973        1.044094       -0.007731
N        0.402708       -0.427629        0.047324
N       -0.411802        0.516950       -0.160337
10
  Step 36: 36.0 fs
C       -1.801335       -0.100447        0.056612
H       -1.893316       -0.167624        1.065096
H       -2.617868        0.520186       -0.344825
H       -1.877493       -1.186333       -0.541659
C        1.807991        0.046684        0.054831
H        2.124422       -0.283012        0.953477
H        2.119477       -0.476226       -0.907315
H        2.024386        1.075641       -0.014237
N        0.407615       -0.423970        0.046888
N       -0.404636        0.507330       -0.157666
10
  Step 37: 37.0 fs
C       -1.802067       -0.100890        0.049601
H       -1.870107       -0.154915        1.123382
H       -2.631060        0.532228       -0.343458
H       -1.889936       -1.154168       -0.552830
C        1.803950        0.043702        0.050792
H        2.103600       -0.280569        1.013244
H        2.062913       -0.464920       -0.910229
H        2.010226        1.124823       -0.024144
N        0.411445       -0.418905        0.046465
N       -0.397611        0.496576       -0.154642
10
  Step 38: 38.0 fs
C       -1.802842       -0.102468        0.040466
H       -1.850844       -0.147985        1.187363
H       -2.636704        0.544985       -0.340638
H       -1.899416       -1.101052       -0.546023
C        1.799297        0.041021        0.045133
H        2.097841       -0.288485        1.079614
H        2.020797       -0.453714       -0.902895
H        1.990393        1.174063       -0.035846
N        0.414213       -0.413005        0.046196
N       -0.391153        0.485306       -0.151456
10
  Step 39: 39.0 fs
C       -1.803747       -0.104507        0.031222
H       -1.835700       -0.146110        1.236218
H       -2.632939        0.557788       -0.334958
H       -1.906082       -1.036270       -0.524917
C        1.794481        0.039534        0.039897
H        2.101792       -0.299570        1.132375
H        1.997798       -0.446395       -0.891752
H        1.964287        1.210269       -0.047797
N        0.416105       -0.406978        0.046261
N       -0.385772        0.474250       -0.148296
10
  Step 40: 40.0 fs
C       -1.804612       -0.105694        0.023566
H       -1.825300       -0.148893        1.258937
H       -2.619588        0.570973       -0.325908
H       -1.911134       -0.977191       -0.498549
C        1.789707        0.039861        0.036495
H        2.111951       -0.309310        1.159550
H        1.997072       -0.446346       -0.883459
H        1.932624        1.226194       -0.058873
N        0.417438       -0.401614        0.046843
N       -0.382018        0.464175       -0.145343
10
  Step 41: 41.0 fs
C       -1.805043       -0.104168        0.019115
H       -1.820193       -0.155994        1.251285
H       -2.598124        0.585718       -0.313951
H       -1.917124       -0.948221       -0.480935
C        1.785107        0.042236        0.035534
H        2.126107       -0.315161        1.156033
H        2.019410       -0.454839       -0.881088
H        1.896940        1.219429       -0.068347
N        0.418589       -0.397687        0.048097
N       -0.380396        0.455791       -0.142773
10
  Step 42: 42.0 fs
C       -1.804610       -0.098826        0.018799
H       -1.820690       -0.166975        1.213904
H       -2.571385        0.603743       -0.300471
H       -1.926395       -0.965142       -0.481871
C        1.780855        0.046398        0.036816
H        2.142850       -0.315771        1.121585
H        2.062677       -0.469863       -0.882040
H        1.859282        1.191872       -0.075884
N        0.419885       -0.395859        0.050108
N       -0.381250        0.449639       -0.140734
10
  Step 43: 43.0 fs
C       -1.803130       -0.090800        0.021937
H       -1.826824       -0.181360        1.152623
H       -2.543056        0.626870       -0.287568
H       -1.938365       -1.017091       -0.496529
C        1.777178        0.051601        0.039527
H        2.161655       -0.310898        1.060485
H        2.121990       -0.486838       -0.879919
H        1.822036        1.150164       -0.081673
N        0.421496       -0.396576        0.052882
N       -0.384656        0.446003       -0.139322
10
  Step 44: 44.0 fs
C       -1.800658       -0.082332        0.026601
H       -1.838439       -0.199107        1.080850
H       -2.516603        0.656132       -0.277475
H       -1.950533       -1.078559       -0.512902
C        1.774249        0.056736        0.042473
H        2.183548       -0.301932        0.982731
H        2.190742       -0.500587       -0.868565
H        1.787643        1.106629       -0.086700
N        0.423370       -0.399998        0.056355
N       -0.390377        0.444842       -0.138560
10
  Step 45: 45.0 fs
C       -1.797352       -0.074934        0.030243
H       -1.855596       -0.221572        1.021994
H       -2.493903        0.690642       -0.271666
H       -1.960848       -1.129065       -0.522636
C        1.772012        0.060615        0.044154
H        2.212393       -0.292821        0.905598
H        2.261871       -0.506869       -0.844792
H        1.758054        1.077967       -0.092821
N        0.425260       -0.406002        0.060420
N       -0.397906        0.445812       -0.138387
10
  Step 46: 46.0 fs
C       -1.793415       -0.069018        0.030336
H       -1.879052       -0.251612        1.002565
H       -2.474832        0.727281       -0.270261
H       -1.968207       -1.157246       -0.522565
C        1.770133        0.062588        0.043002
H        2.254803       -0.289377        0.850513
H        2.329000       -0.503199       -0.809197
H        1.734279        1.077713       -0.101800
N        0.426801       -0.414224        0.064937
N       -0.406537        0.448334       -0.138656
10
  Step 47: 47.0 fs
C       -1.789164       -0.064529        0.026204
H       -1.909125       -0.289767        1.028940
H       -2.458124        0.761612       -0.272223
H       -1.972103       -1.158198       -0.512843
C        1.768397        0.062970        0.038277
H        2.314325       -0.294301        0.830313
H        2.387213       -0.489098       -0.765711
H        1.716783        1.106059       -0.113638
N        0.427611       -0.424137        0.069756
N       -0.415473        0.451718       -0.139165
10
  Step 48: 48.0 fs
C       -1.785147       -0.061553        0.019556
H       -1.943399       -0.330686        1.080408
H       -2.442539        0.789295       -0.276029
H       -1.972427       -1.131357       -0.495567
C        1.767277        0.062616        0.030780
H        2.383863       -0.302727        0.839653
H        2.433579       -0.466010       -0.720454
H        1.706073        1.150071       -0.126324
N        0.427374       -0.435134        0.074716
N       -0.423922        0.455267       -0.139696
10
  Step 49: 49.0 fs
C       -1.781972       -0.060116        0.012593
H       -1.977785       -0.366873        1.132065
H       -2.427512        0.807068       -0.280213
H       -1.969568       -1.080270       -0.474355
C        1.767614        0.062424        0.022097
H        2.449627       -0.306592        0.864439
H        2.467462       -0.436960       -0.680449
H        1.702459        1.193638       -0.137369
N        0.425893       -0.446590        0.079653
N       -0.431173        0.458358       -0.140036
10
  Step 50: 50.0 fs
C       -1.780032       -0.059741        0.006941
H       -2.008742       -0.392824        1.168386
H       -2.413390        0.813394       -0.283685
H       -1.964857       -1.014335       -0.454949
C        1.769924        0.063170        0.013645
H        2.499901       -0.300304        0.893098
H        2.490419       -0.405966       -0.652405
H        1.705665        1.224688       -0.144959
N        0.423106       -0.457929        0.084412
N       -0.436657        0.460487       -0.140005
10
  Step 51: 51.0 fs
C       -1.779369       -0.059205        0.003872
H       -2.033895       -0.405666        1.182202
H       -2.401432        0.808811       -0.285945
H       -1.961211       -0.951363       -0.446508
C        1.774244        0.065425        0.006440
H        2.527869       -0.281614        0.918629
H        2.505473       -0.377266       -0.641751
H        1.714824        1.236543       -0.148162
N        0.419073       -0.468646        0.088857
N       -0.439962        0.461272       -0.139460
10
  Step 52: 52.0 fs
C       -1.779722       -0.056880        0.004523
H       -2.051782       -0.404492        1.171141
H       -2.393684        0.796065       -0.287158
H       -1.962726       -0.914326       -0.460550
C        1.780373        0.069438        0.001128
H        2.530575       -0.250506        0.936862
H        2.515405       -0.354189       -0.651440
H        1.728617        1.227345       -0.146818
N        0.413933       -0.478326        0.092876
N       -0.440834        0.460450       -0.138302
10
  Step 53: 53.0 fs
C       -1.780860       -0.052190        0.009364
H       -2.061630       -0.389844        1.135899
H       -2.392721        0.779837       -0.288159
H       -1.971307       -0.914281       -0.502870
C        1.788146        0.075028       -0.002019
H        2.507792       -0.208375        0.945233
H        2.520836       -0.338133       -0.680783
H        1.745357        1.199744       -0.141512
N        0.407885       -0.486651        0.096384
N       -0.439171        0.457877       -0.136481
10
  Step 54: 54.0 fs
C       -1.782851       -0.046504        0.017470
H       -2.063551       -0.363882        1.080859
H       -2.400911        0.765528       -0.290263
H       -1.983903       -0.938482       -0.565716
C        1.797487        0.081507       -0.003108
H        2.461795       -0.157867        0.942778
H        2.519832       -0.328504       -0.725275
H        1.763000        1.161576       -0.133731
N        0.401178       -0.493406        0.099330
N       -0.435015        0.453531       -0.133986
10
  Step 55: 55.0 fs
C       -1.785820       -0.041568        0.026776
H       -2.059390       -0.331235        1.016834
H       -2.418957        0.756948       -0.294691
H       -1.995670       -0.965689       -0.634197
C        1.808221        0.087737       -0.002631
H        2.398081       -0.103111        0.931483
H        2.509394       -0.323489       -0.777691
H        1.779179        1.126253       -0.126045
N        0.394117       -0.498489        0.101699
N       -0.428588        0.447513       -0.130851
10
  Step 56: 56.0 fs
C       -1.789637       -0.038008        0.034475
H       -2.054080       -0.299988        0.964788
H       -2.444779        0.754601       -0.301766
H       -2.003380       -0.981234       -0.695562
C        1.819795        0.092454       -0.001560
H        2.326364       -0.049847        0.918861
H        2.487444       -0.321075       -0.829878
H        1.791457        1.110071       -0.121856
N        0.387070       -0.501929        0.103511
N       -0.420300        0.440057       -0.127145
10
  Step 57: 57.0 fs
C       -1.793943       -0.035417        0.037504
H       -2.054936       -0.279880        0.951915
H       -2.473902        0.756205       -0.310522
H       -2.005677       -0.978323       -0.741498