10
  Step 0: 0.0 fs
C       -1.803709       -0.067743        0.000067
H       -2.311474        0.330677        0.889271
H       -2.311371        0.329953       -0.889472
H       -1.816432       -1.165808        0.000678
C        1.803676        0.067711        0.000033
H        2.310875       -0.329712        0.890029
H        2.312186       -0.330855       -0.888647
H        1.816250        1.165780       -0.000408
N        0.410955       -0.460069       -0.000162
N       -0.410931        0.460089       -0.000131
10
  Step 1: 1.0 fs
C       -1.807967       -0.061074        0.005451
H       -2.302680        0.330488        0.813078
H       -2.337364        0.343788       -0.881504
H       -1.792383       -1.235906        0.003919
C        1.820892        0.079183       -0.005059
H        2.253814       -0.370221        0.884803
H        2.295969       -0.296901       -0.869745
H        1.821779        1.128115       -0.000075
N        0.397811       -0.462125        0.004658
N       -0.404509        0.453846       -0.001533
10
  Step 2: 2.0 fs
C       -1.811206       -0.056591        0.008736
H       -2.306280        0.339419        0.762165
H       -2.359957        0.354698       -0.873334
H       -1.770389       -1.286389        0.007226
C        1.836789        0.089357       -0.009328
H        2.201655       -0.409926        0.882090
H        2.286976       -0.269318       -0.862716
H        1.827552        1.108070        0.002081
N        0.385541       -0.464505        0.009305
N       -0.398799        0.448185       -0.002963
10
  Step 3: 3.0 fs
C       -1.812558       -0.055545        0.008407
H       -2.332252        0.364969        0.755270
H       -2.376471        0.360548       -0.865521
H       -1.752488       -1.307842        0.010871
C        1.850464        0.097122       -0.012021
H        2.157859       -0.447274        0.882200
H        2.290481       -0.252889       -0.876585
H        1.833491        1.119158        0.007978
N        0.374916       -0.467553        0.013623
N       -0.394493        0.443676       -0.004454
10
  Step 4: 4.0 fs
C       -1.812444       -0.057738        0.005133
H       -2.375076        0.402609        0.785625
H       -2.385362        0.360255       -0.859107
H       -1.740273       -1.297218        0.015052
C        1.861646        0.102249       -0.013054
H        2.124764       -0.479955        0.883538
H        2.306157       -0.247527       -0.910180
H        1.839637        1.159177        0.018856
N        0.366534       -0.471546        0.017490
N       -0.392138        0.440788       -0.006041
10
  Step 5: 5.0 fs
C       -1.812106       -0.062039        0.000836
H       -2.419294        0.439880        0.831548
H       -2.386309        0.353777       -0.855141
H       -1.734834       -1.255914        0.019871
C        1.870539        0.105347       -0.013029
H        2.104042       -0.505539        0.883825
H        2.328717       -0.248769       -0.952561
H        1.846407        1.211906        0.034720
N        0.360769       -0.476586        0.020817
N       -0.392045        0.439806       -0.007755
10
  Step 6: 6.0 fs
C       -1.812489       -0.067177       -0.002920
H       -2.452658        0.466880        0.875269
H       -2.380135        0.341987       -0.854570
H       -1.736704       -1.190624        0.025509
C        1.877474        0.107175       -0.012719
H        2.096879       -0.522152        0.881188
H        2.351801       -0.251224       -0.990629
H        1.854260        1.259305        0.054546
N        0.357740       -0.482542        0.023540
N       -0.394251        0.440767       -0.009615
10
  Step 7: 7.0 fs
C       -1.814028       -0.071642       -0.005243
H       -2.468982        0.478596        0.906608
H       -2.368571        0.326453       -0.858400
H       -1.745543       -1.116464        0.032482
C        1.882702        0.108258       -0.012681
H        2.103928       -0.528860        0.874684
H        2.370623       -0.250904       -1.014766
H        1.863351        1.288838        0.076864
N        0.357317       -0.489045        0.025620
N       -0.398528        0.443439       -0.011620
10
  Step 8: 8.0 fs
C       -1.816869       -0.073231       -0.005719
H       -2.466139        0.473400        0.920402
H       -2.353826        0.309064       -0.867675
H       -1.759790       -1.060192        0.041948
C        1.886365        0.108875       -0.013204
H        2.125235       -0.525809        0.864441
H        2.382413       -0.245599       -1.020002
H        1.873499        1.294214        0.100166
N        0.359175       -0.495545        0.027036
N       -0.404445        0.447360       -0.013750
10
  Step 9: 9.0 fs
C       -1.820993       -0.069674       -0.004271
H       -2.444530        0.451985        0.914660
H       -2.338044        0.291533       -0.883127
H       -1.777321       -1.051162        0.055524
C        1.888510        0.109138       -0.014350
H        2.160195       -0.514183        0.851530
H        2.386190       -0.234628       -1.005613
H        1.884247        1.274215        0.123102
N        0.362882       -0.501411        0.027789
N       -0.411447        0.451919       -0.015970
10
  Step 10: 10.0 fs
C       -1.826143       -0.060998       -0.001040
H       -2.406847        0.417343        0.890411
H       -2.322822        0.274976       -0.904612
H       -1.797208       -1.092778        0.073413
C        1.889099        0.108983       -0.015953
H        2.207521       -0.495980        0.837598
H        2.382661       -0.218672       -0.974910
H        1.894910        1.232389        0.144667
N        0.367973       -0.506028        0.027903
N       -0.418927        0.456466       -0.018235
10
  Step 11: 11.0 fs
C       -1.831802       -0.049926        0.003502
H       -2.359174        0.375555        0.853621
H       -2.308895        0.259675       -0.930394
H       -1.819246       -1.158477        0.093216
C        1.887988        0.108076       -0.017554
H        2.265189       -0.473605        0.824271
H        2.374550       -0.199878       -0.935738
H        1.904621        1.177899        0.164572
N        0.374016       -0.508876        0.027423
N       -0.426282        0.460400       -0.020490
10
  Step 12: 12.0 fs
C       -1.837128       -0.039574        0.008048
H       -2.312937        0.336890        0.818884
H       -2.296198        0.245234       -0.956844
H       -1.842508       -1.220477        0.111857
C        1.884934        0.105713       -0.018379
H        2.330281       -0.449313        0.812390
H        2.366698       -0.181765       -0.900375
H        1.912448        1.125990        0.183723
N        0.380635       -0.509579        0.026419
N       -0.432972        0.463225       -0.022681
10
  Step 13: 13.0 fs
C       -1.840930       -0.032342        0.010381
H       -2.284151        0.314687        0.809716
H       -2.284465        0.231213       -0.979333
H       -1.865562       -1.262576        0.127163
C        1.879697        0.100970       -0.017542
H        2.398955       -0.424928        0.801638
H        2.364829       -0.168149       -0.882624
H        1.917598        1.094860        0.204169
N        0.387526       -0.507930        0.024979
N       -0.438553        0.464586       -0.024755
10
  Step 14: 14.0 fs
C       -1.842476       -0.029492        0.008935
H       -2.282828        0.317038        0.841645
H       -2.273865        0.217695       -0.993951
H       -1.886972       -1.277621        0.137915
C        1.872364        0.093351       -0.014513
H        2.466615       -0.401766        0.790711
H        2.371745       -0.160648       -0.890319
H        1.919475        1.095326        0.227173
N        0.394446       -0.503901        0.023203
N       -0.442685        0.464290       -0.026671
10
  Step 15: 15.0 fs
C       -1.842358       -0.030833        0.004682
H       -2.302426        0.338972        0.901517
H       -2.265230        0.205450       -0.998928
H       -1.905454       -1.263725        0.143536
C        1.863626        0.083427       -0.009439
H        2.528381       -0.380830        0.777981
H        2.384107       -0.157223       -0.919620
H        1.917389        1.122077        0.250725
N        0.401205       -0.497639        0.021201
N       -0.445124        0.462308       -0.028398
10
  Step 16: 16.0 fs
C       -1.841684       -0.035469       -0.000117
H       -2.329274        0.369823        0.962712
H       -2.259919        0.195808       -0.994961
H       -1.919970       -1.222598        0.144023
C        1.854559        0.072506       -0.002952
H        2.579657       -0.362959        0.762077
H        2.394537       -0.154054       -0.958789
H        1.910610        1.159419        0.270448
N        0.407656       -0.489456        0.019089
N       -0.445742        0.458768       -0.029914
10
  Step 17: 17.0 fs
C       -1.841166       -0.042385       -0.003736
H       -2.353375        0.401483        1.006068
H       -2.259508        0.190454       -0.984697
H       -1.929913       -1.160503        0.140204
C        1.846165        0.061934        0.004197
H        2.616759       -0.349028        0.742428
H        2.396038       -0.148048       -0.995812
H        1.898773        1.192237        0.282468
N        0.413695       -0.479797        0.016982
N       -0.444538        0.453936       -0.031202
10
  Step 18: 18.0 fs
C       -1.841038       -0.050214       -0.005310
H       -2.369388        0.429234        1.022318
H       -2.265349        0.191080       -0.971651
H       -1.935492       -1.091294        0.134188
C        1.839103        0.052760        0.011322
H        2.637505       -0.340101        0.719592
H        2.384254       -0.137678       -1.022319
H        1.882100        1.210722        0.284722
N        0.419272       -0.469217        0.014989
N       -0.441644        0.448185       -0.032252
10
  Step 19: 19.0 fs
C       -1.841218       -0.056815       -0.004669
H       -2.374821        0.450453        1.008506
H       -2.278027        0.198836       -0.958855
H       -1.938253       -1.039465        0.129738
C        1.833639        0.045731        0.017840
H        2.641680       -0.337521        0.695386
H        2.357602       -0.122759       -1.034026
H        1.861349        1.210316        0.276921
N        0.424393       -0.458360        0.013209
N       -0.437316        0.441963       -0.033067
10
  Step 20: 20.0 fs
C       -1.841500       -0.059767       -0.002129
H       -2.368835        0.463788        0.965571
H       -2.296849        0.213671       -0.947640
H       -1.940737       -1.032677        0.130974
C        1.829669        0.041334        0.023247
H        2.631304       -0.342943        0.672832
H        2.316781       -0.103988       -1.030090
H        1.837718        1.190607        0.260169
N        0.429120       -0.447925        0.011737
N       -0.431912        0.435767       -0.033666
10
  Step 21: 21.0 fs
C       -1.841791       -0.058520        0.001830
H       -2.352224        0.469398        0.898250
H       -2.319772        0.234047       -0.937587
H       -1.943929       -1.076286        0.138580
C        1.826758        0.039785        0.027161
H        2.610380       -0.358173        0.655731
H        2.264567       -0.082763       -1.013064
H        1.812746        1.155183        0.236844
N        0.433544       -0.438620        0.010662
N       -0.425848        0.430108       -0.034079
10
  Step 22: 22.0 fs
C       -1.842072       -0.055105        0.006548
H       -2.328543        0.470186        0.816925
H       -2.343804        0.257220       -0.927464
H       -1.946340       -1.146417        0.149050
C        1.824246        0.040900        0.029450
H        2.583844       -0.384694        0.647662
H        2.205832       -0.061142       -0.989489
H        1.788150        1.112392        0.210679
N        0.437759       -0.431112        0.010062
N       -0.419565        0.425474       -0.034347
10
  Step 23: 23.0 fs
C       -1.841941       -0.052244        0.010712
H       -2.306110        0.474076        0.740346
H       -2.365619        0.279812       -0.916382
H       -1.946494       -1.215058        0.158686
C        1.821473        0.043952        0.030390
H        2.555480       -0.422626        0.650295
H        2.147169       -0.041697       -0.969950
H        1.765519        1.075703        0.186631
N        0.441830       -0.425970        0.010008
N       -0.413514        0.422271       -0.034511
10
  Step 24: 24.0 fs
C       -1.840506       -0.052238        0.012470
H       -2.297418        0.494081        0.692883
H       -2.382304        0.298590       -0.904489
H       -1.944035       -1.264183        0.165612
C        1.818056        0.047758        0.030660
H        2.526257       -0.469607        0.661977
H        2.095417       -0.027028       -0.966590
H        1.746051        1.060818        0.169932
N        0.445739       -0.423585        0.010549
N       -0.408098        0.420760       -0.034609
10
  Step 25: 25.0 fs
C       -1.837253       -0.056186        0.010907
H       -2.309118        0.537482        0.687465
H       -2.391908        0.311072       -0.892944
H       -1.939270       -1.284861        0.169298
C        1.814016        0.051345        0.030883
H        2.494803       -0.520767        0.678188
H        2.055111       -0.018822       -0.986161
H        1.730819        1.076546        0.164149
N        0.449376       -0.424117        0.011717
N       -0.403610        0.421028       -0.034677
10
  Step 26: 26.0 fs
C       -1.832832       -0.063300        0.007075
H       -2.333195        0.594067        0.713426
H       -2.393622        0.315845       -0.883303
H       -1.932686       -1.274170        0.169813
C        1.809626        0.054646        0.031102
H        2.459431       -0.570188        0.693509
H        2.027274       -0.017195       -1.024279
H        1.721380        1.117167        0.169789
N        0.452542       -0.427477        0.013517
N       -0.400191        0.422986       -0.034745
10
  Step 27: 27.0 fs
C       -1.828269       -0.071879        0.002673
H       -2.356537        0.646320        0.751674
H       -2.387696        0.312641       -0.876938
H       -1.924814       -1.233898        0.167667
C        1.805169        0.058261        0.030841
H        2.419706       -0.612510        0.703455
H        2.010794       -0.020949       -1.068546
H        1.719394        1.167190        0.184921
N        0.454968       -0.433333        0.015923
N       -0.397836        0.426384       -0.034830
10
  Step 28: 28.0 fs
C       -1.824141       -0.080244       -0.001126
H       -2.370498        0.681801        0.788314
H       -2.375287        0.302236       -0.874982
H       -1.916412       -1.171714        0.164133
C        1.800835        0.062784        0.029560
H        2.376848       -0.643888        0.705326
H        2.004127       -0.028296       -1.106166
H        1.725693        1.211198        0.206628
N        0.456352       -0.441161        0.018867
N       -0.396426        0.430845       -0.034933
10
  Step 29: 29.0 fs
C       -1.820539       -0.086547       -0.003782
H       -2.371353        0.694414        0.815479
H       -2.358223        0.286180       -0.878547
H       -1.908746       -1.104330        0.161929
C        1.796712        0.068512        0.026898
H        2.333542       -0.662374        0.698412
H        2.005935       -0.037410       -1.128156
H        1.740011        1.238545        0.231995
N        0.456383       -0.450311        0.022247
N       -0.395772        0.435904       -0.035041
10
  Step 30: 30.0 fs
C       -1.817261       -0.088443       -0.005224
H       -2.358317        0.682222        0.828974
H       -2.338594        0.266352       -0.888676
H       -1.903707       -1.058758        0.165607
C        1.792808        0.075482        0.022701
H        2.293572       -0.668041        0.683929
H        2.015105       -0.046663       -1.130051
H        1.761260        1.243691        0.258537
N        0.454775       -0.460085        0.025937
N       -0.395655        0.441058       -0.035138
10
  Step 31: 31.0 fs
C       -1.814051       -0.084062       -0.005583
H       -2.332417        0.646156        0.826956
H       -2.318280        0.244427       -0.905972
H       -1.902736       -1.058997        0.179438
C        1.789075        0.083556        0.016980
H        2.261286       -0.662914        0.664762
H        2.030685       -0.054691       -1.111394
H        1.787836        1.225402        0.284318
N        0.451310       -0.469800        0.029796
N       -0.395850        0.445817       -0.035211
10
  Step 32: 32.0 fs
C       -1.810823       -0.074106       -0.004846
H       -2.296519        0.590204        0.810188
H       -2.298531        0.221503       -0.929969
H       -1.904700       -1.101167        0.202402
C        1.785422        0.092413        0.009918
H        2.240933       -0.650634        0.644948
H        2.051983       -0.060486       -1.075714
H        1.817827        1.186751        0.308179
N        0.445873       -0.478841        0.033682
N       -0.396140        0.449763       -0.035255
10
  Step 33: 33.0 fs
C       -1.807528       -0.061483       -0.003110
H       -2.256442        0.522747        0.784088
H       -2.279712        0.198007       -0.958406
H       -1.906447       -1.159068        0.228363
C        1.781718        0.101423        0.001946
H        2.235734       -0.635504        0.628676
H        2.078898       -0.063606       -1.030987
H        1.849250        1.135986        0.330262
N        0.438490       -0.486693        0.037464
N       -0.396345        0.452579       -0.035273
10
  Step 34: 34.0 fs
C       -1.803766       -0.049353       -0.001331
H       -2.222673        0.458119        0.762331
H       -2.261463        0.174030       -0.987121
H       -1.905206       -1.209276        0.251183
C        1.777799        0.109514       -0.006227
H        2.246788       -0.620941        0.618817
H        2.112262       -0.064384       -0.989247
H        1.880459        1.086763        0.352597
N        0.429359       -0.492970        0.041024
N       -0.396357        0.454070       -0.035266
10
  Step 35: 35.0 fs
C       -1.798736       -0.040287       -0.001349
H       -2.209186        0.413818        0.765953
H       -2.243331        0.149899       -1.011168
H       -1.899330       -1.239013        0.266933
C        1.773506        0.115343       -0.013773
H        2.272463       -0.608343        0.615861
H        2.153563       -0.063682       -0.963275
H        1.910582        1.054846        0.378798
N        0.418856       -0.497440        0.044266
N       -0.396173        0.454181       -0.035231
10
  Step 36: 36.0 fs
C       -1.792066       -0.035487       -0.004222
H       -2.223309        0.397931        0.805669
H       -2.225381        0.126492       -1.026598
H       -1.887989       -1.243255        0.273533
C        1.768931        0.117960       -0.020087
H        2.308702       -0.597126        0.618008
H        2.202787       -0.061732       -0.959589
H        1.938880        1.049215        0.410975
N        0.407495       -0.500045        0.047118
N       -0.395888        0.453021       -0.035170
10
  Step 37: 37.0 fs
C       -1.784522       -0.034506       -0.008737
H       -2.257556        0.402644        0.866092
H       -2.208426        0.105153       -1.031851
H       -1.870881       -1.221583        0.270195
C        1.764705        0.117366       -0.024922
H        2.350090       -0.585716        0.622193
H        2.256037       -0.057257       -0.974304
H        1.963292        1.065694        0.446223
N        0.395873       -0.500903        0.049540
N       -0.395666        0.450855       -0.035088
10
  Step 38: 38.0 fs
C       -1.777257       -0.036331       -0.012824
H       -2.298686        0.416122        0.922868
H       -2.193924        0.087503       -1.027996
H       -1.848217       -1.177030        0.257372
C        1.761860        0.114239       -0.028262
H        2.391110       -0.572631        0.625297
H        2.306208       -0.048255       -0.997185
H        1.980473        1.092112        0.477857
N        0.384618       -0.500290        0.051519
N       -0.395713        0.448090       -0.034997
10
  Step 39: 39.0 fs
C       -1.771058       -0.039941       -0.015049
H       -2.336757        0.430639        0.959607
H       -2.183706        0.075245       -1.018162
H       -1.820851       -1.117300        0.237178
C        1.761382        0.109377       -0.030161
H        2.427033       -0.557057        0.624925
H        2.346024       -0.033356       -1.018280
H        1.987345        1.116725        0.499387
N        0.374342       -0.498600        0.053070
N       -0.396252        0.445234       -0.034917
10
  Step 40: 40.0 fs
C       -1.766294       -0.043990       -0.014824
H       -2.366014        0.442138        0.968759
H       -2.179583        0.069885       -1.006535
H       -1.790302       -1.057739        0.214026
C        1.763899        0.103458       -0.030708
H        2.454527       -0.539219        0.619858
H        2.370158       -0.012324       -1.030995
H        1.982096        1.131841        0.506699
N        0.365611       -0.496289        0.054224
N       -0.397489        0.442851       -0.034870
10
  Step 41: 41.0 fs
C       -1.763129       -0.046547       -0.012224
H       -2.383389        0.448450        0.948243
H       -2.182734        0.072337       -0.996759
H       -1.758307       -1.022094        0.194357
C        1.769568        0.097028       -0.030029
H        2.472109       -0.520529        0.610339
H        2.375814        0.014133       -1.032453
H        1.964321        1.133828        0.498235
N        0.358900       -0.493799        0.055017
N       -0.399568        0.441474       -0.034886
10
  Step 42: 42.0 fs
C       -1.761722       -0.045964       -0.007676
H       -2.387630        0.448531        0.899603
H       -2.193097        0.082509       -0.990491
H       -1.726001       -1.030826        0.183282
C        1.778085        0.090529       -0.028308
H        2.480372       -0.503509        0.598110
H        2.362625        0.044634       -1.023007
H        1.934793        1.122432        0.474703
N        0.354550       -0.491490        0.055488
N       -0.402518        0.441526       -0.034987
10
  Step 43: 43.0 fs
C       -1.762161       -0.042637       -0.001641
H       -2.379691        0.442923        0.828318
H       -2.209123        0.099125       -0.987082
H       -1.694515       -1.080207        0.180113
C        1.788698        0.084264       -0.025771
H        2.481970       -0.491491        0.586218
H        2.332626        0.077340       -1.006158
H        1.895301        1.100706        0.439020
N        0.352742       -0.489581        0.055662
N       -0.406227        0.443242       -0.035184
10
  Step 44: 44.0 fs
C       -1.764134       -0.038770        0.005108
H       -2.364524        0.435156        0.745815
H       -2.228020        0.119847       -0.984448
H       -1.666445       -1.146297        0.180424
C        1.800280        0.078287       -0.022621
H        2.481123       -0.487990        0.578440
H        2.290333        0.110137       -0.988851
H        1.848416        1.075465        0.396444
N        0.353468       -0.488125        0.055559
N       -0.410461        0.446623       -0.035459
10
  Step 45: 45.0 fs
C       -1.766680       -0.036782        0.011031
H       -2.353762        0.433821        0.671643
H       -2.246495        0.141786       -0.980558
H       -1.644968       -1.206204        0.180732
C        1.811567        0.072319       -0.018946
H        2.482153       -0.495374        0.577894
H        2.242052        0.140976       -0.980683
H        1.796960        1.056690        0.353996
N        0.356539       -0.487033        0.055190
N       -0.414910        0.451434       -0.035771
10
  Step 46: 46.0 fs
C       -1.768417       -0.038582        0.014251
H       -2.363431        0.451053        0.628275
H       -2.261582        0.162062       -0.974463
H       -1.632556       -1.246020        0.179561
C        1.821576        0.065901       -0.014695
H        2.487452       -0.513326        0.585277
H        2.193787        0.168115       -0.990361
H        1.743413        1.053788        0.318409
N        0.361606       -0.486122        0.054565
N       -0.419232        0.457280       -0.036057
10
  Step 47: 47.0 fs
C       -1.768846       -0.044784        0.014138
H       -2.398817        0.490705        0.623405
H       -2.271268        0.178305       -0.966529
H       -1.630603       -1.259142        0.176634
C        1.829862        0.058929       -0.009895
H        2.496540       -0.538446        0.598253
H        2.148737        0.189849       -1.019652
H        1.690305        1.069075        0.293327
N        0.368210       -0.485167        0.053709
N       -0.423056        0.463680       -0.036247
10
  Step 48: 48.0 fs
C       -1.769032       -0.054338        0.011794
H       -2.446392        0.541067        0.644281
H       -2.274747        0.188975       -0.957898
H       -1.639526       -1.244027        0.172225
C        1.836355        0.051943       -0.004879
H        2.506867       -0.565494        0.612516
H        2.107261        0.204145       -1.061191
H        1.641321        1.095665        0.278667
N        0.375846       -0.483941        0.052661
N       -0.426013        0.470152       -0.036277
10
  Step 49: 49.0 fs
C       -1.770307       -0.065567        0.008611
H       -2.488896        0.586623        0.674425
H       -2.272377        0.193456       -0.949936
H       -1.658887       -1.203699        0.167098
C        1.841020        0.045804       -0.000195
H        2.515451       -0.589308        0.623610
H        2.069042        0.208994       -1.103138
H        1.601196        1.122684        0.272515
N        0.384022       -0.482244        0.051472
N       -0.427793        0.476255       -0.036085
10
  Step 50: 50.0 fs
C       -1.773401       -0.076765        0.005447
H       -2.515677        0.617097        0.703002
H       -2.265480        0.191981       -0.944166
H       -1.687309       -1.147397        0.162848
C        1.843748        0.041230        0.003636
H        2.520088       -0.606097        0.628216
H        2.034517        0.203194       -1.135093
H        1.574322        1.141180        0.272881
N        0.392286       -0.479925        0.050203
N       -0.428182        0.481608       -0.035611
10
  Step 51: 51.0 fs
C       -1.778525       -0.085915        0.002653
H       -2.522128        0.627455        0.724076
H       -2.255986        0.185427       -0.942345
H       -1.722369       -1.093530        0.162456
C        1.844394        0.038643        0.006242
H        2.519793       -0.613875        0.624643
H        2.004817        0.186636       -1.150447
H        1.563773        1.145992        0.278220
N        0.400237       -0.476889        0.048911
N       -0.427076        0.485884       -0.034800
10
  Step 52: 52.0 fs
C       -1.785580       -0.090662        0.000255
H       -2.507270        0.616142        0.734552
H       -2.245952        0.175012       -0.946283
H       -1.761257       -1.067803        0.170180
C        1.842844        0.038202        0.007413
H        2.514929       -0.612540        0.612942
H        1.981389        0.160217       -1.146712
H        1.571034        1.135674        0.287472
N        0.407531       -0.473104        0.047657
N       -0.424475        0.488806       -0.033613
10
  Step 53: 53.0 fs
C       -1.794214       -0.089701       -0.001773
H       -2.472533        0.584307        0.733235
H       -2.237075        0.161910       -0.957314
H       -1.802165       -1.085831        0.188687
C        1.839043        0.039841        0.007095
H        2.507135       -0.603801        0.594804
H        1.965675        0.125672       -1.125263
H        1.596002        1.112094        0.300033
N        0.413879       -0.468601        0.046501
N       -0.420467        0.490161       -0.032032
10
  Step 54: 54.0 fs
C       -1.803889       -0.084285       -0.003303
H       -2.422142        0.536336        0.721466
H       -2.230317        0.146949       -0.975487
H       -1.843867       -1.135763        0.215246
C        1.833026        0.043232        0.005426
H        2.499045       -0.590942        0.573268
H        1.958972        0.085421       -1.091652
H        1.636941        1.080712        0.315881
N        0.419070       -0.463469        0.045505
N       -0.415206        0.489836       -0.030061
10
  Step 55: 55.0 fs
C       -1.813883       -0.077183       -0.004467
H       -2.364686        0.481296        0.705401
H       -2.225766        0.130516       -0.998747
H       -1.884151       -1.192269        0.243547
C        1.824945        0.047750        0.002795
H        2.493668       -0.578271        0.552109
H        1.962358        0.042286       -1.055750
H        1.690688        1.050610        0.335673
N        0.422984       -0.457852        0.044731
N       -0.408920        0.487833       -0.027727
10
  Step 56: 56.0 fs
C       -1.823085       -0.071171       -0.006274
H       -2.314556        0.434203        0.699109
H       -2.222927        0.112874       -1.022968
H       -1.920346       -1.236108        0.267918
C        1.815078        0.052545       -0.000172
H        2.493153       -0.569942        0.534764
H        1.976678       -0.001041       -1.030188
H        1.753491        1.032723        0.360467
N        0.425626       -0.451941        0.044237
N       -0.401943        0.484280       -0.025075
10
  Step 57: 57.0 fs
C       -1.830256       -0.068389       -0.010317
H       -2.287319        0.411363        0.720943
H       -2.221314        0.094653       -1.043252
H       -1.950223       -1.257573        0.284733