10
  Step 0: 0.0 fs
C       -1.803706       -0.067740        0.000063
H       -2.311491        0.330675        0.889252
H       -2.311376        0.329944       -0.889485
H       -1.816411       -1.165810        0.000673
C        1.803674        0.067709        0.000027
H        2.310888       -0.329674        0.890043
H        2.312183       -0.330867       -0.888652
H        1.816231        1.165792       -0.000417
N        0.410951       -0.460073       -0.000162
N       -0.410927        0.460090       -0.000120
10
  Step 1: 1.0 fs
C       -1.798815       -0.050544       -0.000641
H       -2.320132        0.267732        0.861876
H       -2.322267        0.338687       -0.848253
H       -1.831735       -1.217250        0.037623
C        1.804945        0.072000        0.000393
H        2.288845       -0.345831        0.908731
H        2.388363       -0.385834       -0.912497
H        1.820245        1.222001        0.002637
N        0.419112       -0.467812       -0.002009
N       -0.426043        0.458092       -0.001488
10
  Step 2: 2.0 fs
C       -1.793550       -0.035888       -0.001388
H       -2.333909        0.212778        0.847863
H       -2.336738        0.349916       -0.816161
H       -1.845649       -1.252030        0.070617
C        1.807010        0.076503        0.000007
H        2.266173       -0.359154        0.924870
H        2.453827       -0.431806       -0.922193
H        1.824721        1.263400        0.004793
N        0.426586       -0.474852       -0.003969
N       -0.440165        0.455653       -0.002852
10
  Step 3: 3.0 fs
C       -1.787857       -0.025186       -0.002086
H       -2.355659        0.170429        0.855688
H       -2.357255        0.365330       -0.799363
H       -1.856791       -1.262827        0.095995
C        1.810269        0.081227       -0.001280
H        2.242822       -0.367321        0.936482
H        2.502295       -0.463571       -0.911846
H        1.829900        1.281887        0.005487
N        0.432820       -0.480656       -0.006139
N       -0.452405        0.452497       -0.004210
10
  Step 4: 4.0 fs
C       -1.782488       -0.018871       -0.002341
H       -2.382242        0.141564        0.883069
H       -2.382838        0.384418       -0.797602
H       -1.864074       -1.248044        0.110906
C        1.814828        0.086026       -0.003355
H        2.219327       -0.368796        0.942817
H        2.530621       -0.478526       -0.880322
H        1.835903        1.274687        0.004363
N        0.437399       -0.484857       -0.008597
N       -0.461992        0.448514       -0.005569
10
  Step 5: 5.0 fs
C       -1.778801       -0.016758       -0.001677
H       -2.406376        0.125628        0.920214
H       -2.409021        0.404512       -0.804932
H       -1.866813       -1.209674        0.113429
C        1.820592        0.090603       -0.006032
H        2.196650       -0.362955        0.944669
H        2.537830       -0.475892       -0.829327
H        1.842788        1.243670        0.001176
N        0.440056       -0.487255       -0.011403
N       -0.468309        0.443740       -0.006939
10
  Step 6: 6.0 fs
C       -1.778088       -0.018278        0.000190
H       -2.421251        0.122089        0.956913
H       -2.430247        0.422300       -0.813637
H       -1.864935       -1.153361        0.102676
C        1.827254        0.094476       -0.009045
H        2.175950       -0.350048        0.944329
H        2.525339       -0.456895       -0.763352
H        1.850575        1.195931       -0.004244
N        0.440661       -0.487804       -0.014602
N       -0.470942        0.438334       -0.008332
10
  Step 7: 7.0 fs
C       -1.781093       -0.022382        0.003318
H       -2.422684        0.130296        0.985962
H       -2.442240        0.435258       -0.817569
H       -1.859297       -1.090416        0.079020
C        1.834180        0.096946       -0.011896
H        2.158311       -0.331012        0.945219
H        2.498634       -0.426202       -0.691161
H        1.859228        1.145323       -0.011992
N        0.439221       -0.486594       -0.018228
N       -0.469730        0.432534       -0.009751
10
  Step 8: 8.0 fs
C       -1.787894       -0.027293        0.007617
H       -2.409034        0.148961        1.003277
H       -2.442858        0.442185       -0.813249
H       -1.851910       -1.040495        0.044163
C        1.840168        0.097362       -0.013577
H        2.144485       -0.307116        0.951034
H        2.470254       -0.394432       -0.628125
H        1.868624        1.111422       -0.022177
N        0.435888       -0.483830       -0.022303
N       -0.464808        0.426620       -0.011189
10
  Step 9: 9.0 fs
C       -1.798008       -0.030836        0.012996
H       -2.380597        0.175878        1.007264
H       -2.432265        0.443420       -0.800070
H       -1.845297       -1.027376        0.000164
C        1.843455        0.095853       -0.012525
H        2.134765       -0.279535        0.964467
H        2.460077       -0.378273       -0.595243
H        1.878476        1.110479       -0.035087
N        0.430973       -0.479831       -0.026844
N       -0.456603        0.420900       -0.012633
10
  Step 10: 10.0 fs
C       -1.810590       -0.032088        0.019444
H       -2.339486        0.208137        0.998863
H       -2.412927        0.441009       -0.780342
H       -1.840931       -1.059840       -0.051501
C        1.842893        0.093465       -0.007724
H        2.129047       -0.249113        0.986084
H        2.481609       -0.389133       -0.605028
H        1.888190        1.142192       -0.051098
N        0.424939       -0.475029       -0.031850
N       -0.445806        0.415716       -0.014063
10
  Step 11: 11.0 fs
C       -1.824485       -0.032407        0.026765
H       -2.290002        0.242902        0.982594
H       -2.389471        0.438638       -0.759228
H       -1.839163       -1.120370       -0.107864
C        1.839410        0.090968       -0.000008
H        2.126919       -0.216389        1.013925
H        2.524915       -0.419791       -0.646291
H        1.896815        1.190510       -0.070095
N        0.418380       -0.469957       -0.037297
N       -0.433315        0.411456       -0.015460
10
  Step 12: 12.0 fs
C       -1.838242       -0.033944        0.034361
H       -2.238485        0.278410        0.967116
H       -2.367834        0.440935       -0.743858
H       -1.840497       -1.183315       -0.163301
C        1.834920        0.088643        0.008954
H        2.127710       -0.181806        1.043991
H        2.569223       -0.454626       -0.696880
H        1.903263        1.236669       -0.091240
N        0.412012       -0.465248       -0.043145
N       -0.420187        0.408562       -0.016804
10
  Step 13: 13.0 fs
C       -1.850484       -0.038221        0.041332
H       -2.191729        0.314407        0.963232
H       -2.352970        0.451609       -0.740192
H       -1.845673       -1.230747       -0.211813
C        1.830845        0.086705        0.017953
H        2.130561       -0.145970        1.071570
H        2.599878       -0.482588       -0.739986
H        1.906603        1.267375       -0.113325
N        0.406618       -0.461585       -0.049345
N       -0.407522        0.407503       -0.018075
10
  Step 14: 14.0 fs
C       -1.860436       -0.045755        0.046822
H       -2.154041        0.350605        0.977458
H       -2.346438        0.471260       -0.749055
H       -1.855188       -1.253578       -0.248709
C        1.827940        0.085346        0.026337
H        2.134578       -0.109787        1.092659
H        2.610068       -0.498382       -0.766256
H        1.906217        1.275665       -0.135189
N        0.402924       -0.459599       -0.055843
N       -0.396302        0.408697       -0.019251
10
  Step 15: 15.0 fs
C       -1.868060       -0.056070        0.050396
H       -2.125954        0.384213        1.006771
H       -2.346211        0.496783       -0.765198
H       -1.869136       -1.248594       -0.270905
C        1.826530        0.084666        0.033749
H        2.138992       -0.074470        1.104790
H        2.597800       -0.500203       -0.771217
H        1.901791        1.259499       -0.155917
N        0.401469       -0.459745       -0.062575
N       -0.387254        0.412403       -0.020307
10
  Step 16: 16.0 fs
C       -1.873699       -0.067991        0.052085
H       -2.105973        0.409980        1.041130
H       -2.348780        0.523099       -0.780493
H       -1.887244       -1.216784       -0.276839
C        1.826648        0.084604        0.039948
H        2.143364       -0.041395        1.107518
H        2.564035       -0.488374       -0.753502
H        1.893284        1.221100       -0.175043
N        0.402489       -0.462175       -0.069462
N       -0.380763        0.418596       -0.021219
10
  Step 17: 17.0 fs
C       -1.877695       -0.079994        0.052185
H       -2.092656        0.422651        1.070092
H       -2.351251        0.545504       -0.787857
H       -1.908949       -1.163950       -0.266799
C        1.828039        0.084887        0.044831
H        2.147667       -0.011952        1.102437
H        2.512555       -0.465349       -0.714750
H        1.880934        1.167380       -0.192849
N        0.405869       -0.466682       -0.076396
N       -0.376843        0.426910       -0.021975
10
  Step 18: 18.0 fs
C       -1.880241       -0.090215        0.051178
H       -2.085182        0.418736        1.086399
H       -2.352041        0.560748       -0.782941
H       -1.933624       -1.103299       -0.243806
C        1.830052        0.085026        0.048657
H        2.152241        0.012759        1.092838
H        2.451470       -0.437090       -0.661398
H        1.865188        1.111115       -0.210882
N        0.411187       -0.472734       -0.083239
N       -0.375208        0.436658       -0.022581
10
  Step 19: 19.0 fs
C       -1.881341       -0.096303        0.049754
H       -2.083208        0.397107        1.086817
H       -2.350903        0.567380       -0.764428
H       -1.961160       -1.057953       -0.214413
C        1.831458        0.084598        0.052387
H        2.157658        0.032164        1.083056
H        2.395692       -0.415480       -0.607837
H        1.846558        1.069789       -0.232186
N        0.417817       -0.479594       -0.089830
N       -0.375376        0.446940       -0.023061
10
  Step 20: 20.0 fs
C       -1.880791       -0.096074        0.048615
H       -2.086666        0.359098        1.072037
H       -2.348861        0.565857       -0.733948
H       -1.992384       -1.053530       -0.186257
C        1.830586        0.083868        0.057611
H        2.164451        0.046372        1.077357
H        2.365771       -0.418020       -0.575747
H        1.825477        1.057845       -0.259894
N        0.425054       -0.486459       -0.095997
N       -0.376804        0.456782       -0.023456
10
  Step 21: 21.0 fs
C       -1.878336       -0.089592        0.047869
H       -2.095807        0.308750        1.047338
H       -2.348349        0.558843       -0.696168
H       -2.027107       -1.094181       -0.161534
C        1.826517        0.083642        0.064996
H        2.172790        0.056091        1.078788
H        2.373591       -0.455099       -0.577691
H        1.802740        1.075745       -0.293963
N        0.432206       -0.492589       -0.101562
N       -0.378978        0.465285       -0.023811
10
  Step 22: 22.0 fs
C       -1.873855       -0.079645        0.046985
H       -2.111363        0.252423        1.023033
H       -2.353279        0.551219       -0.658497
H       -2.061613       -1.156863       -0.137245
C        1.820168        0.084079        0.072937
H        2.182190        0.062348        1.088176
H        2.409000       -0.515810       -0.601154
H        1.780086        1.110206       -0.330046
N        0.438674       -0.497396       -0.106359
N       -0.381480        0.471747       -0.024162
10
  Step 23: 23.0 fs
C       -1.867238       -0.069463        0.045379
H       -2.134459        0.196929        1.012250
H       -2.368308        0.548864       -0.629362
H       -2.090731       -1.215441       -0.111659
C        1.813156        0.084826        0.079274
H        2.191297        0.066172        1.103354
H        2.453457       -0.580149       -0.625226
H        1.759846        1.144983       -0.362204
N        0.443988       -0.500465       -0.110250
N       -0.384013        0.475681       -0.024532
10
  Step 24: 24.0 fs
C       -1.858500       -0.061060        0.042840
H       -2.165191        0.146523        1.023251
H       -2.396211        0.555346       -0.614001
H       -2.110446       -1.254004       -0.085853
C        1.806680        0.085641        0.082816
H        2.198043        0.068421        1.119820
H        2.493727       -0.633579       -0.636655
H        1.744146        1.168267       -0.385664
N        0.447821       -0.501562       -0.113141
N       -0.386397        0.476824       -0.024930
10
  Step 25: 25.0 fs
C       -1.848198       -0.055024        0.039717
H       -2.200541        0.102178        1.052486
H       -2.435003        0.569017       -0.611082
H       -2.118256       -1.265645       -0.062261
C        1.801454        0.086411        0.083268
H        2.200220        0.069764        1.132670
H        2.522691       -0.668418       -0.629966
H        1.734506        1.173821       -0.397686
N        0.449976       -0.500631       -0.114984
N       -0.388551        0.475118       -0.025351
10
  Step 26: 26.0 fs
C       -1.837445       -0.051093        0.036669
H       -2.234727        0.063916        1.087988
H       -2.478099        0.584097       -0.614167
H       -2.112795       -1.248984       -0.043584
C        1.797881        0.087022        0.080788
H        2.196064        0.070744        1.138259
H        2.536904       -0.681294       -0.604083
H        1.731830        1.159967       -0.397498
N        0.450367       -0.497777       -0.115775
N       -0.390455        0.470693       -0.025778
10
  Step 27: 27.0 fs
C       -1.827449       -0.048757        0.034274
H       -2.261842        0.032620        1.117995
H       -2.517499        0.594429       -0.616157
H       -2.093657       -1.206502       -0.032345
C        1.796146        0.087262        0.075749
H        2.184579        0.071844        1.135075
H        2.535144       -0.671509       -0.560427
H        1.736451        1.129063       -0.386259
N        0.449002       -0.493259       -0.115547
N       -0.392137        0.463860       -0.026182
10
  Step 28: 28.0 fs
C       -1.819106       -0.047399        0.032914
H       -2.277651        0.009764        1.135120
H       -2.546601        0.595962       -0.612124
H       -2.061702       -1.145162       -0.030819
C        1.796213        0.086748        0.068708
H        2.165625        0.073522        1.124091
H        2.518384       -0.640966       -0.502657
H        1.748113        1.088066       -0.367349
N        0.445989       -0.487464       -0.114371
N       -0.393666        0.455093       -0.026519
10
  Step 29: 29.0 fs
C       -1.812809       -0.046067        0.032825
H       -2.279942       -0.003342        1.136398
H       -2.561349        0.587280       -0.599918
H       -2.019679       -1.078836       -0.041081
C        1.797675        0.084999        0.060523
H        2.139832        0.076242        1.108716
H        2.491395       -0.595816       -0.437662
H        1.765960        1.049246       -0.346619
N        0.441549       -0.480894       -0.112359
N       -0.395158        0.445024       -0.026736
10
  Step 30: 30.0 fs
C       -1.808445       -0.043258        0.034202
H       -2.268193       -0.006158        1.122066
H       -2.560415        0.569376       -0.579981
H       -1.972385       -1.030086       -0.065219
C        1.799483        0.081827        0.052442
H        2.108380        0.080471        1.094259
H        2.465856       -0.549443       -0.377091
H        1.788775        1.028315       -0.331346
N        0.436028       -0.474135       -0.109659
N       -0.396782        0.434424       -0.026775
10
  Step 31: 31.0 fs
C       -1.805575       -0.037582        0.037231
H       -2.243401        0.000762        1.095084
H       -2.545485        0.545609       -0.555297
H       -1.924440       -1.021805       -0.105165
C        1.799811        0.078089        0.045846
H        2.072650        0.086619        1.086538
H        2.461725       -0.523029       -0.336492
H        1.815509        1.036063       -0.326556
N        0.429893       -0.467831       -0.106458
N       -0.398751        0.424174       -0.026590
10
  Step 32: 32.0 fs
C       -1.803647       -0.029594        0.041830
H       -2.208311        0.015721        1.061803
H       -2.521717        0.521845       -0.531559
H       -1.877036       -1.055460       -0.160192
C        1.797197        0.075349        0.041327
H        2.033884        0.094907        1.089576
H        2.494419       -0.532248       -0.325537
H        1.845281        1.069362       -0.331653
N        0.423675       -0.462621       -0.102961
N       -0.401296        0.415192       -0.026148
10
  Step 33: 33.0 fs
C       -1.801801       -0.021923        0.047298
H       -2.167785        0.036213        1.033083
H       -2.497523        0.505892       -0.516783
H       -1.830103       -1.108703       -0.224156
C        1.792370        0.074137        0.038133
H        1.993155        0.105159        1.103544
H        2.554476       -0.569259       -0.337829
H        1.876673        1.114104       -0.341996
N        0.417874       -0.459069       -0.099382
N       -0.404626        0.408317       -0.025445
10
  Step 34: 34.0 fs
C       -1.798910       -0.017155        0.052419
H       -2.128150        0.059621        1.022945
H       -2.481319        0.504636       -0.518453
H       -1.785387       -1.157855       -0.288236
C        1.787363        0.074075        0.035230
H        1.951605        0.116748        1.124349
H        2.618181       -0.613970       -0.359620
H        1.907586        1.154996       -0.352669
N        0.412882       -0.457570       -0.095917
N       -0.408876        0.404169       -0.024509
10
  Step 35: 35.0 fs
C       -1.794382       -0.016567        0.055993
H       -2.094359        0.083734        1.040882
H       -2.475795        0.519700       -0.538344
H       -1.745685       -1.188964       -0.344817
C        1.783744        0.074849        0.032192
H        1.910746        0.128747        1.145497
H        2.667421       -0.651367       -0.380473
H        1.935740        1.181233       -0.360375
N        0.408931       -0.458277       -0.092739
N       -0.414018        0.403067       -0.023399
10
  Step 36: 36.0 fs
C       -1.788662       -0.020144        0.057486
H       -2.067349        0.106381        1.082908
H       -2.476045        0.546161       -0.570359
H       -1.713561       -1.196139       -0.388616
C        1.782280        0.076317        0.029075
H        1.872484        0.140214        1.160848
H        2.692918       -0.673815       -0.394515
H        1.959166        1.187157       -0.363571
N        0.406062       -0.461078       -0.089989
N       -0.419801        0.405022       -0.022190
10
  Step 37: 37.0 fs
C       -1.782744       -0.027136        0.057118
H       -2.045369        0.124947        1.134026
H       -2.474237        0.576060       -0.604503
H       -1.690985       -1.178297       -0.416420
C        1.783183        0.078332        0.026102
H        1.838917        0.150398        1.166262
H        2.691136       -0.678288       -0.398790
H        1.976441        1.171457       -0.362144
N        0.404135       -0.465621       -0.087768
N       -0.425752        0.409776       -0.020953
10
  Step 38: 38.0 fs
C       -1.777493       -0.036585        0.055386
H       -2.026776        0.136859        1.178430
H       -2.464548        0.602433       -0.631923
H       -1.679355       -1.137598       -0.426729
C        1.786298        0.080614        0.023503
H        1.812080        0.158788        1.160277
H        2.662160       -0.664614       -0.392151
H        1.986831        1.136863       -0.357290
N        0.402873       -0.471375       -0.086141
N       -0.431262        0.416889       -0.019746
10
  Step 39: 39.0 fs
C       -1.773422       -0.047433        0.052773
H       -2.011037        0.140198        1.205271
H       -2.444446        0.620693       -0.646827
H       -1.679401       -1.080035       -0.420109
C        1.791126        0.082678        0.021512
H        1.793683        0.165188        1.144220
H        2.609528       -0.635441       -0.375121
H        1.990524        1.090866       -0.351794
N        0.401938       -0.477711       -0.085135
N       -0.435682        0.425806       -0.018606
10
  Step 40: 40.0 fs
C       -1.770753       -0.058318        0.049834
H       -1.998488        0.133873        1.209140
H       -2.414367        0.628707       -0.646576
H       -1.690807       -1.017896       -0.400483
C        1.796685        0.083941        0.020480
H        1.784897        0.169757        1.121998
H        2.542038       -0.597987       -0.350792
H        1.988832        1.046176       -0.350282
N        0.400994       -0.483975       -0.084746
N       -0.438423        0.435913       -0.017562
10
  Step 41: 41.0 fs
C       -1.769501       -0.067280        0.047414
H       -1.989959        0.117625        1.189050
H       -2.377133        0.626633       -0.631397
H       -1.711798       -0.972678       -0.376813
C        1.801296        0.084187        0.021001
H        1.786238        0.173080        1.099648
H        2.476792       -0.567223       -0.326585
H        1.983898        1.018389       -0.358548
N        0.399757       -0.489534       -0.084935
N       -0.439037        0.446552       -0.016635
10
  Step 42: 42.0 fs
C       -1.769437       -0.072229        0.046478
H       -1.986649        0.092218        1.148386
H       -2.337763        0.617172       -0.604472
H       -1.739827       -0.969693       -0.360883
C        1.802835        0.084238        0.023727
H        1.797593        0.176137        1.084274
H        2.437662       -0.565325       -0.313997
H        1.977339        1.017580       -0.380544
N        0.398028       -0.493829       -0.085632
N       -0.437263        0.457041       -0.015844
10
  Step 43: 43.0 fs
C       -1.769938       -0.072883        0.047143
H       -1.990298        0.059740        1.096289
H       -2.303474        0.606019       -0.572254
H       -1.773294       -1.015965       -0.356935
C        1.800295        0.085263        0.028514
H        1.818427        0.180097        1.081921
H        2.437781       -0.604946       -0.319899
H        1.969049        1.040149       -0.414846
N        0.395709       -0.496408       -0.086735
N       -0.433044        0.466715       -0.015203
10
  Step 44: 44.0 fs
C       -1.770109       -0.071598        0.048203
H       -2.003426        0.023422        1.048827
H       -2.282902        0.601365       -0.543909
H       -1.810775       -1.090293       -0.357888
C        1.794957        0.087045        0.034007
H        1.847966        0.185876        1.094616
H        2.464600       -0.671739       -0.337878
H        1.957929        1.072394       -0.455270
N        0.392814       -0.496953       -0.088115
N       -0.426522        0.475000       -0.014704
10
  Step 45: 45.0 fs
C       -1.769180       -0.071147        0.047987
H       -2.028937       -0.013643        1.025295
H       -2.282963        0.610170       -0.527664
H       -1.849588       -1.165252       -0.355657
C        1.788798        0.088629        0.038846
H        1.885003        0.193692        1.118334
H        2.497298       -0.740964       -0.356868
H        1.943236        1.099957       -0.494504
N        0.389486       -0.495315       -0.089625
N       -0.418038        0.481484       -0.014309
10
  Step 46: 46.0 fs
C       -1.767040       -0.072869        0.045476
H       -2.067486       -0.049916        1.035093
H       -2.304395        0.632489       -0.525318
H       -1.886504       -1.222616       -0.346725
C        1.783174        0.089395        0.042494
H        1.927475        0.203051        1.144531
H        2.522137       -0.795389       -0.369674
H        1.925066        1.113022       -0.526748
N        0.385989       -0.491537       -0.091117
N       -0.408116        0.485960       -0.013951
10
  Step 47: 47.0 fs
C       -1.764531       -0.076664        0.040935
H       -2.114471       -0.084711        1.068560
H       -2.340961        0.660524       -0.531455
H       -1.918568       -1.253264       -0.331019
C        1.778847        0.089084        0.044983
H        1.972466        0.213137        1.164210
H        2.532588       -0.826433       -0.373200
H        1.904204        1.106814       -0.548471
N        0.382679       -0.485856       -0.092452
N       -0.397415        0.488447       -0.013553
10
  Step 48: 48.0 fs
C       -1.762964       -0.081873        0.035343
H       -2.161895       -0.116588        1.107146
H       -2.383507        0.684045       -0.538399
H       -1.943348       -1.253900       -0.310162
C        1.776242        0.087561        0.046532
H        2.016675        0.223187        1.170789
H        2.526262       -0.830857       -0.366755
H        1.881912        1.080757       -0.558347
N        0.379966       -0.478693       -0.093511
N       -0.386674        0.489169       -0.013034
10
  Step 49: 49.0 fs
C       -1.763465       -0.087806        0.029613
H       -2.202454       -0.143483        1.136086
H       -2.423931        0.695268       -0.540316
H       -1.959041       -1.225362       -0.286700
C        1.775552        0.084666        0.047391
H        2.056987        0.232720        1.161186
H        2.503267       -0.808817       -0.351106
H        1.859802        1.038116       -0.557359
N        0.378274       -0.470621       -0.094194
N       -0.376657        0.488532       -0.012316
10
  Step 50: 50.0 fs
C       -1.766692       -0.093739        0.024405
H       -2.231285       -0.163448        1.147579
H       -2.456597        0.690111       -0.534182
H       -1.964766       -1.173170       -0.264146
C        1.776714        0.080169        0.047870
H        2.090909        0.241684        1.135971
H        2.466282       -0.763991       -0.328497
H        1.839698        0.986449       -0.549291
N        0.378005       -0.462321       -0.094421
N       -0.368112        0.487071       -0.011322
10
  Step 51: 51.0 fs
C       -1.772785       -0.098648        0.020279
H       -2.245807       -0.175093        1.139126
H       -2.478448        0.667913       -0.519452
H       -1.961139       -1.109870       -0.247483
C        1.779240        0.073940        0.048452
H        2.116951        0.250578        1.099342
H        2.422256       -0.705789       -0.303592
H        1.823367        0.937630       -0.541039
N        0.379497       -0.454514       -0.094127
N       -0.361719        0.485374       -0.009980
10
  Step 52: 52.0 fs
C       -1.781359       -0.100958        0.017843
H       -2.245281       -0.177755        1.112038
H       -2.489006        0.631133       -0.497777
H       -1.950809       -1.057474       -0.243673
C        1.781969        0.066444        0.049818
H        2.135005        0.260545        1.058916
H        2.385239       -0.652789       -0.284989
H        1.812060        0.905226       -0.541109
N        0.382960       -0.447849       -0.093265
N       -0.358014        0.483980       -0.008234
10
  Step 53: 53.0 fs
C       -1.791573       -0.099084        0.017662
H       -2.230682       -0.171704        1.071047
H       -2.490937        0.585681       -0.473222
H       -1.937197       -1.041268       -0.260069
C        1.783174        0.059164        0.052472
H        2.146520        0.273254        1.024770
H        2.375098       -0.630544       -0.284461
H        1.806233        0.897341       -0.554834
N        0.388418       -0.442799       -0.091799
N       -0.357321        0.483283       -0.006049
10
  Step 54: 54.0 fs
C       -1.802348       -0.093259        0.019713
H       -2.205110       -0.158402        1.025304
H       -2.490854        0.541272       -0.452632
H       -1.920842       -1.068206       -0.298417
C        1.781942        0.053419        0.055880
H        2.153921        0.290327        1.006534
H        2.401511       -0.651546       -0.307898
H        1.805807        0.911028       -0.580203
N        0.395663       -0.439583       -0.089705
N       -0.359701        0.483474       -0.003425
10
  Step 55: 55.0 fs
C       -1.812366       -0.086060        0.022893
H       -2.174286       -0.140643        0.989706
H       -2.498600        0.509733       -0.444782
H       -1.899646       -1.118780       -0.351218
C        1.779410        0.048906        0.058341
H        2.158974        0.312160        1.008639
H        2.450754       -0.700150       -0.346962
H        1.810507        0.935648       -0.609822
N        0.404233       -0.438147       -0.086970
N       -0.364948        0.484522       -0.000405
10
  Step 56: 56.0 fs
C       -1.820310       -0.080140        0.025351
H       -2.145400       -0.121966        0.982208
H       -2.521522        0.498947       -0.455974
H       -1.873000       -1.168135       -0.407221
C        1.777494        0.044894        0.058402
H        2.161313        0.336900        1.027374
H        2.502112       -0.752745       -0.388088
H        1.819881        0.959847       -0.635753
N        0.413478       -0.438202       -0.083605
N       -0.372628        0.486190        0.002926
10
  Step 57: 57.0 fs
C       -1.825804       -0.076653        0.025502
H       -2.122796       -0.105098        1.011777
H       -2.557201        0.507074       -0.484476
H       -1.842416       -1.200265       -0.457098