10
  Step 0: 0.0 fs
C       -1.803711       -0.067739        0.000062
H       -2.311496        0.330690        0.889254
H       -2.311368        0.329953       -0.889473
H       -1.816427       -1.165799        0.000700
C        1.803675        0.067714        0.000027
H        2.310912       -0.329709        0.890018
H        2.312185       -0.330837       -0.888647
H        1.816222        1.165789       -0.000385
N        0.410953       -0.460075       -0.000158
N       -0.410925        0.460086       -0.000127
10
  Step 1: 1.0 fs
C       -1.808243       -0.062873       -0.007081
H       -2.298761        0.320083        0.874324
H       -2.250779        0.295608       -0.820153
H       -1.815995       -1.189129       -0.004465
C        1.817819        0.064391       -0.004947
H        2.295295       -0.340612        0.867135
H        2.357519       -0.377843       -0.923627
H        1.762174        1.183838        0.039600
N        0.413063       -0.457348        0.006901
N       -0.424828        0.463820        0.000942
10
  Step 2: 2.0 fs
C       -1.810888       -0.060283       -0.011527
H       -2.289683        0.311577        0.864805
H       -2.211788        0.277871       -0.788446
H       -1.815484       -1.204649       -0.009353
C        1.831575        0.061379       -0.011031
H        2.284296       -0.353986        0.851322
H        2.395173       -0.416374       -0.947684
H        1.712660        1.195019        0.076609
N        0.414791       -0.454412        0.013829
N       -0.437927        0.467184        0.002000
10
  Step 3: 3.0 fs
C       -1.810227       -0.061654       -0.010953
H       -2.287233        0.306781        0.864320
H       -2.211066        0.290197       -0.825557
H       -1.814926       -1.207976       -0.013885
C        1.844460        0.058972       -0.018701
H        2.280991       -0.371442        0.847230
H        2.420746       -0.441128       -0.955487
H        1.672055        1.194719        0.108015
N        0.415817       -0.451128        0.020493
N       -0.449508        0.469897        0.003046
10
  Step 4: 4.0 fs
C       -1.807294       -0.066337       -0.007196
H       -2.292776        0.306297        0.873095
H       -2.237727        0.323143       -0.909705
H       -1.814314       -1.198691       -0.018065
C        1.856125        0.057203       -0.027718
H        2.285472       -0.392256        0.854348
H        2.432384       -0.449421       -0.945844
H        1.644049        1.181442        0.131753
N        0.415912       -0.447444        0.026768
N       -0.458980        0.471789        0.004090
10
  Step 5: 5.0 fs
C       -1.803997       -0.072566       -0.003396
H       -2.305476        0.309337        0.887405
H       -2.271944        0.359028       -0.999383
H       -1.813656       -1.180055       -0.022045
C        1.866381        0.055819       -0.037238
H        2.295245       -0.413397        0.867447
H        2.430374       -0.440838       -0.920950
H        1.631263        1.156725        0.146471
N        0.414940       -0.443405        0.032542
N       -0.465930        0.472815        0.005135
10
  Step 6: 6.0 fs
C       -1.801603       -0.078801       -0.001041
H       -2.322708        0.313968        0.901069
H       -2.302076        0.387303       -1.069872
H       -1.813071       -1.158585       -0.026179
C        1.875044        0.054458       -0.046072
H        2.306963       -0.431114        0.879807
H        2.417463       -0.417528       -0.886775
H        1.634985        1.124950        0.151671
N        0.412866       -0.439141        0.037725
N       -0.470146        0.473033        0.006168
10
  Step 7: 7.0 fs
C       -1.800787       -0.083791       -0.000424
H       -2.341296        0.318007        0.908169
H       -2.323010        0.403464       -1.110898
H       -1.812772       -1.142925       -0.030907
C        1.881751        0.052831       -0.052826
H        2.317859       -0.442469        0.886017
H        2.399745       -0.385012       -0.854290
H        1.654947        1.093232        0.147917
N        0.409755       -0.434838        0.042251
N       -0.471601        0.472581        0.007170
10
  Step 8: 8.0 fs
C       -1.801885       -0.086632       -0.001465
H       -2.358558        0.319736        0.904833
H       -2.332570        0.405827       -1.118952
H       -1.812960       -1.140605       -0.036549
C        1.885914        0.050800       -0.056023
H        2.326266       -0.445991        0.882981
H        2.386520       -0.351946       -0.839103
H        1.689314        1.070805        0.136859
N        0.405771       -0.430703        0.046077
N       -0.470425        0.471648        0.008125
10
  Step 9: 9.0 fs
C       -1.805010       -0.087045       -0.004091
H       -2.372822        0.318261        0.889836
H       -2.329916        0.394073       -1.093703
H       -1.813680       -1.153590       -0.043019
C        1.887034        0.048225       -0.054661
H        2.331770       -0.441836        0.870073
H        2.385771       -0.326058       -0.854573
H        1.735296        1.066700        0.120807
N        0.401188       -0.426931        0.049191
N       -0.466885        0.470458        0.009019
10
  Step 10: 10.0 fs
C       -1.810073       -0.085477       -0.008320
H       -2.383691        0.313644        0.864804
H       -2.315226        0.368977       -1.037344
H       -1.814801       -1.176916       -0.049719
C        1.885232        0.044890       -0.049126
H        2.335257       -0.431814        0.849215
H        2.396640       -0.308237       -0.899873
H        1.790271        1.084755        0.101614
N        0.396371       -0.423699        0.051614
N       -0.461368        0.469255        0.009848
10
  Step 11: 11.0 fs
C       -1.816690       -0.082905       -0.014070
H       -2.392092        0.306878        0.834116
H       -2.290566        0.333172       -0.956527
H       -1.816123       -1.201880       -0.055722
C        1.881187        0.040960       -0.041164
H        2.339010       -0.419384        0.824972
H        2.410007       -0.293881       -0.959854
H        1.852081        1.119762        0.079996
N        0.391756       -0.421166        0.053395
N       -0.454370        0.468301        0.010614
10
  Step 12: 12.0 fs
C       -1.823955       -0.080639       -0.020630
H       -2.400076        0.299669        0.804403
H       -2.262521        0.293420       -0.867713
H       -1.817507       -1.220452       -0.060099
C        1.875581        0.037285       -0.032866
H        2.346525       -0.409228        0.803980
H        2.416349       -0.278904       -1.017165
H        1.918012        1.159713        0.056226
N        0.387808       -0.419491        0.054609
N       -0.446477        0.467867        0.011320
10
  Step 13: 13.0 fs
C       -1.830155       -0.080385       -0.025859
H       -2.410066        0.293905        0.782933
H       -2.246299        0.263853       -0.804591
H       -1.818906       -1.227414       -0.062202
C        1.868919        0.034944       -0.025914
H        2.361259       -0.405741        0.792390
H        2.409834       -0.261909       -1.059653
H        1.984202        1.192321        0.031171
N        0.384968       -0.418825        0.055347
N       -0.438315        0.468214        0.011955
10
  Step 14: 14.0 fs
C       -1.833304       -0.083729       -0.026886
H       -2.423481        0.290842        0.774781
H       -2.261109        0.261287       -0.806793
H       -1.820288       -1.221056       -0.061780
C        1.861705        0.034649       -0.021198
H        2.384200       -0.410747        0.791890
H        2.388138       -0.243470       -1.080929
H        2.046206        1.209106        0.006409
N        0.383604       -0.419280        0.055704
N       -0.430491        0.469561        0.012501
10
  Step 15: 15.0 fs
C       -1.833451       -0.090275       -0.024051
H       -2.439631        0.290516        0.780492
H       -2.304566        0.284005       -0.870792
H       -1.821481       -1.203612       -0.058913
C        1.854591        0.036533       -0.018788
H        2.412500       -0.422619        0.798280
H        2.351356       -0.225241       -1.079052
H        2.099777        1.206309       -0.016078
N        0.383963       -0.420884        0.055772
N       -0.423493        0.472038        0.012952
10
  Step 16: 16.0 fs
C       -1.832504       -0.097873       -0.020351
H       -2.455653        0.291709        0.795925
H       -2.355070        0.314605       -0.956435
H       -1.822196       -1.181254       -0.054079
C        1.848248        0.040290       -0.018179
H        2.440791       -0.437694        0.804264
H        2.301536       -0.209631       -1.056021
H        2.141426        1.184257       -0.034228
N        0.386134       -0.423535        0.055636
N       -0.417647        0.475634        0.013319
10
  Step 17: 17.0 fs
C       -1.831977       -0.104444       -0.017704
H       -2.467696        0.292542        0.814526
H       -2.396803        0.340181       -1.033471
H       -1.822178       -1.163094       -0.048171
C        1.843112        0.045381       -0.018549
H        2.463758       -0.452391        0.803384
H        2.242825       -0.199871       -1.018474
H        2.168831        1.147061       -0.046121
N        0.390030       -0.426986        0.055380
N       -0.413123        0.480180        0.013622
10
  Step 18: 18.0 fs
C       -1.832586       -0.108526       -0.016726
H       -2.472555        0.291384        0.830265
H       -2.422852        0.354816       -1.087545
H       -1.821258       -1.158126       -0.042208
C        1.839173        0.051146       -0.018752
H        2.477690       -0.464319        0.791737
H        2.181723       -0.200283       -0.979182
H        2.181371        1.102736       -0.050262
N        0.395391       -0.430850        0.055099
N       -0.409933        0.485352        0.013878
10
  Step 19: 19.0 fs
C       -1.834547       -0.109488       -0.017521
H       -2.468571        0.287380        0.839215
H       -2.430907        0.356299       -1.112766
H       -1.819348       -1.169944       -0.036917
C        1.835986        0.056799       -0.017433
H        2.480998       -0.472607        0.768358
H        2.125989       -0.215834       -0.955764
H        2.180669        1.063225       -0.045955
N        0.401814       -0.434645        0.054894
N       -0.407963        0.490721        0.014112
10
  Step 20: 20.0 fs
C       -1.837778       -0.107611       -0.020133
H       -2.455874        0.280623        0.840046
H       -2.420685        0.344158       -1.107101
H       -1.816442       -1.194118       -0.032554
C        1.832986        0.061386       -0.013777
H        2.474342       -0.477977        0.735134
H        2.080935       -0.249439       -0.961268
H        2.170338        1.042389       -0.033658
N        0.408805       -0.437865        0.054883
N       -0.407006        0.495807        0.014350
10
  Step 21: 21.0 fs
C       -1.841969       -0.103797       -0.024643
H       -2.436323        0.272133        0.834056
H       -2.393157        0.319060       -1.070989
H       -1.812666       -1.221068       -0.029072
C        1.829867        0.063971       -0.008490
H        2.460754       -0.482816        0.696730
H        2.046662       -0.297752       -0.992333
H        2.153932        1.049875       -0.014925
N        0.415835       -0.440050        0.055187
N       -0.406805        0.500154        0.014614
10
  Step 22: 22.0 fs
C       -1.846557       -0.099137       -0.031041
H       -2.413200        0.263672        0.824902
H       -2.351089        0.283193       -1.008408
H       -1.808239       -1.241413       -0.026308
C        1.826569        0.064264       -0.003414
H        2.445470       -0.490971        0.659958
H        2.020706       -0.351596       -1.033278
H        2.132305        1.083964        0.008100
N        0.422405       -0.440855        0.055912
N       -0.407101        0.503379        0.014915
10
  Step 23: 23.0 fs
C       -1.850623       -0.094771       -0.038791
H       -2.390526        0.257363        0.817756
H       -2.301118        0.241802       -0.931022
H       -1.803392       -1.248847       -0.024031
C        1.823058        0.062924       -0.000321
H        2.434781       -0.506738        0.632063
H        2.001221       -0.401101       -1.069058
H        2.103915        1.132046        0.033190
N        0.428089       -0.440070        0.057124
N       -0.407651        0.505207        0.015253
10
  Step 24: 24.0 fs
C       -1.852660       -0.092002       -0.045962
H       -2.371818        0.254995        0.817287
H       -2.257679        0.206069       -0.866370
H       -1.798300       -1.240927       -0.022019
C        1.819328        0.060916       -0.000196
H        2.432871       -0.532125        0.617386
H        1.987430       -0.438917       -1.090669
H        2.067505        1.178552        0.058262
N        0.432558       -0.437632        0.058850
N       -0.408265        0.505493        0.015609
10
  Step 25: 25.0 fs
C       -1.850754       -0.092162       -0.049120
H       -2.358856        0.257328        0.825169
H       -2.242054        0.192135       -0.856717
H       -1.793001       -1.219059       -0.020056
C        1.815560        0.058797       -0.003137
H        2.439141       -0.564542        0.615142
H        1.979118       -0.460586       -1.094364
H        2.023563        1.211405        0.081525
N        0.435580       -0.433620        0.061082
N       -0.408819        0.504224        0.015952
10
  Step 26: 26.0 fs
C       -1.844434       -0.095216       -0.046989
H       -2.351573        0.264019        0.839414
H       -2.260812        0.204963       -0.914982
H       -1.787301       -1.188762       -0.017893
C        1.812114        0.056590       -0.008626
H        2.448931       -0.597563        0.620678
H        1.976316       -0.463912       -1.079982
H        1.974099        1.223650        0.101520
N        0.437022       -0.428251        0.063798
N       -0.409250        0.501514        0.016256
10
  Step 27: 27.0 fs
C       -1.835421       -0.099217       -0.042358
H       -2.348652        0.273929        0.855608
H       -2.296220        0.231552       -1.003336
H       -1.780817       -1.159687       -0.015352
C        1.809316        0.054064       -0.015859
H        2.456693       -0.624121        0.628745
H        1.979260       -0.448702       -1.050443
H        1.922062        1.213091        0.117172
N        0.436853       -0.421886        0.066961
N       -0.409557        0.497601        0.016501
10
  Step 28: 28.0 fs
C       -1.825472       -0.102026       -0.037855
H       -2.348150        0.285432        0.868513
H       -2.330734        0.258953       -1.084683
H       -1.773276       -1.143447       -0.012557
C        1.807280        0.051005       -0.023865
H        2.458279       -0.638940        0.635513
H        1.988528       -0.417068       -1.012359
H        1.870898        1.181851        0.127934
N        0.435138       -0.415020        0.070524
N       -0.409816        0.492835        0.016662
10
  Step 29: 29.0 fs
C       -1.815593       -0.102356       -0.034577
H       -2.348209        0.296880        0.873771
H       -2.355315        0.280404       -1.140659
H       -1.764812       -1.147739       -0.009884
C        1.805854        0.047306       -0.031435
H        2.451617       -0.639297        0.639051
H        2.005356       -0.374121       -0.977449
H        1.824178        1.136705        0.134089
N        0.432044       -0.408264        0.074414
N       -0.410168        0.487658        0.016700
10
  Step 30: 30.0 fs
C       -1.806301       -0.100081       -0.032827
H       -2.347588        0.307008        0.868958
H       -2.366032        0.292982       -1.164228
H       -1.756060       -1.170753       -0.007754
C        1.804631        0.042889       -0.037191
H        2.436701       -0.625038        0.639170
H        2.031813       -0.327391       -0.961744
H        1.785063        1.089346        0.137105
N        0.427839       -0.402302        0.078526
N       -0.410795        0.482574        0.016554
10
  Step 31: 31.0 fs
C       -1.797864       -0.095974       -0.032681
H       -2.345910        0.315189        0.853922
H       -2.361223        0.295573       -1.153472
H       -1.747903       -1.202372       -0.006419
C        1.803119        0.037469       -0.040253
H        2.415540       -0.598528        0.637334
H        2.069503       -0.282889       -0.977586
H        1.755592        1.054853        0.139664
N        0.422874       -0.397829        0.082726
N       -0.411884        0.478099        0.016154
10
  Step 32: 32.0 fs
C       -1.790414       -0.091098       -0.034193
H       -2.343738        0.321522        0.830790
H       -2.340510        0.288077       -1.109413
H       -1.741093       -1.230681       -0.005876
C        1.801027        0.030708       -0.041146
H        2.392265       -0.564718        0.636803
H        2.116448       -0.240949       -1.021983
H        1.736448        1.045383        0.144417
N        0.417529       -0.395458        0.086865
N       -0.413592        0.474696        0.015423
10
  Step 33: 33.0 fs
C       -1.783942       -0.086394       -0.037328
H       -2.342428        0.326754        0.803654
H       -2.305071        0.271493       -1.036533
H       -1.736069       -1.246829       -0.005875
C        1.798297        0.023018       -0.041543
H        2.372921       -0.530672        0.642558
H        2.166467       -0.198702       -1.078212
H        1.727568        1.062137        0.152097
N        0.412156       -0.395626        0.090806
N       -0.415999        0.472706        0.014298
10
  Step 34: 34.0 fs
C       -1.778168       -0.082657       -0.041622
H       -2.343704        0.331995        0.777824
H       -2.259370        0.249016       -0.946102
H       -1.732986       -1.246164       -0.006018
C        1.794936        0.015780       -0.043045
H        2.363580       -0.503310        0.659501
H        2.212485       -0.154770       -1.128389
H        1.728684        1.094981        0.161112
N        0.407018       -0.398526        0.094433
N       -0.419066        0.472305        0.012742
10
  Step 35: 35.0 fs
C       -1.772273       -0.080723       -0.045459
H       -2.348874        0.338165        0.758320
H       -2.214991        0.228681       -0.863081
H       -1.731788       -1.228176       -0.005848
C        1.791140        0.010457       -0.046395
H        2.366688       -0.485726        0.688494
H        2.249115       -0.110142       -1.160439
H        1.738978        1.130191        0.169038
N        0.402268       -0.404082        0.097651
N       -0.422622        0.473480        0.010750
10
  Step 36: 36.0 fs
C       -1.764822       -0.081533       -0.045775
H       -2.357993        0.345425        0.748047
H       -2.192186        0.224633       -0.827734
H       -1.732225       -1.196410       -0.004923
C        1.787445        0.007883       -0.051376
H        2.379258       -0.475999        0.724084
H        2.273099       -0.067082       -1.168393
H        1.756788        1.156934        0.174006
N        0.397933       -0.411983        0.100370
N       -0.426370        0.476041        0.008353
10
  Step 37: 37.0 fs
C       -1.755253       -0.085078       -0.040763
H       -2.369668        0.353064        0.746840
H       -2.202635        0.245285       -0.862467
H       -1.733820       -1.159068       -0.002788
C        1.784545        0.008296       -0.057191
H        2.395198       -0.469802        0.757225
H        2.282983       -0.028258       -1.150978
H        1.779811        1.168843        0.175128
N        0.393958       -0.421738        0.102508
N       -0.429916        0.479661        0.005617
10
  Step 38: 38.0 fs
C       -1.745334       -0.089276       -0.032635
H       -2.381553        0.359849        0.751993
H       -2.231624        0.279809       -0.939362
H       -1.735953       -1.129134        0.000940
C        1.782966        0.011612       -0.062868
H        2.408845       -0.463461        0.779801
H        2.279173        0.003605       -1.111241
H        1.805394        1.163640        0.172524
N        0.390254       -0.432746        0.103985
N       -0.432811        0.483923        0.002639
10
  Step 39: 39.0 fs
C       -1.737153       -0.091623       -0.024249
H       -2.391057        0.364474        0.759543
H       -2.260165        0.313295       -1.021088
H       -1.738209       -1.120139        0.006251
C        1.782862        0.017541       -0.067366
H        2.416561       -0.455001        0.786705
H        2.264455        0.025929       -1.057266
H        1.830795        1.142804        0.167266
N        0.386747       -0.444362        0.104724
N       -0.434648        0.488364       -0.000478
10
  Step 40: 40.0 fs
C       -1.731879       -0.090887       -0.017071
H       -2.396174        0.366052        0.765907
H       -2.278448        0.337381       -1.086521
H       -1.740495       -1.137082        0.012584
C        1.783901        0.025551       -0.069448
H        2.416953       -0.444156        0.776239
H        2.245006        0.036542       -1.003971
H        1.853426        1.111774        0.161376
N        0.383405       -0.455945        0.104657
N       -0.435122        0.492515       -0.003641
10
  Step 41: 41.0 fs
C       -1.729988       -0.087394       -0.011670
H       -2.396039        0.364439        0.768980
H       -2.283001        0.348661       -1.126384
H       -1.742715       -1.171784        0.019109
C        1.785282        0.034818       -0.067760
H        2.410799       -0.432247        0.749994
H        2.229974        0.033970       -0.971951
H        1.871224        1.080265        0.157677
N        0.380239       -0.466891        0.103737
N       -0.434037        0.495926       -0.006766
10
  Step 42: 42.0 fs
C       -1.731552       -0.082278       -0.008329
H       -2.391114        0.360310        0.768505
H       -2.273194        0.346102       -1.136956
H       -1.744626       -1.209431        0.025133
C        1.786148        0.044345       -0.061695
H        2.401164       -0.422275        0.712999
H        2.226284        0.017545       -0.976863
H        1.883061        1.060930        0.159130
N        0.377294       -0.476666        0.101950
N       -0.431306        0.498199       -0.009766
10
  Step 43: 43.0 fs
C       -1.736354       -0.076659       -0.007285
H       -2.383096        0.355057        0.766007
H       -2.249809        0.329857       -1.117351
H       -1.746028       -1.237156        0.030288
C        1.786175        0.053346       -0.052491
H        2.393454       -0.418913        0.673563
H        2.231671       -0.011904       -1.014864
H        1.888786        1.064339        0.167432
N        0.374633       -0.484827        0.099327
N       -0.426955        0.499009       -0.012550
10
  Step 44: 44.0 fs
C       -1.743921       -0.071366       -0.008719
H       -2.374520        0.350544        0.764349
H       -2.214900        0.301078       -1.069238
H       -1.746900       -1.247066        0.034527
C        1.785477        0.061664       -0.042610
H        2.394451       -0.427595        0.641417
H        2.237327       -0.050930       -1.066693
H        1.888653        1.092031        0.181676
N        0.372342       -0.491054        0.095941
N       -0.421116        0.498123       -0.015032
10
  Step 45: 45.0 fs
C       -1.753532       -0.066959       -0.012480
H       -2.367929        0.348614        0.766723
H       -2.172675        0.262633       -0.998945
H       -1.747394       -1.236344        0.038076
C        1.784308        0.069705       -0.034007
H        2.408479       -0.451272        0.622730
H        2.235578       -0.094251       -1.113443
H        1.882893        1.134924        0.198671
N        0.370535       -0.495159        0.091892
N       -0.414016        0.495431       -0.017131
10
  Step 46: 46.0 fs
C       -1.764138       -0.063897       -0.017453
H       -2.364737        0.350388        0.775025
H       -2.131748        0.220973       -0.923162
H       -1.747743       -1.206556        0.041438
C        1.783141        0.077789       -0.027394
H        2.433539       -0.487110        0.616330
H        2.222544       -0.136501       -1.143201
H        1.871954        1.179442        0.214731
N        0.369364       -0.497104        0.087294
N       -0.405982        0.490970       -0.018785
10
  Step 47: 47.0 fs
C       -1.774242       -0.062643       -0.020870
H       -2.364661        0.355855        0.788608
H       -2.107285        0.187965       -0.875761
H       -1.748132       -1.163877        0.045473
C        1.782625        0.085747       -0.022596
H        2.462320       -0.527258        0.615920
H        2.197331       -0.173188       -1.150331
H        1.856784        1.214049        0.227039
N        0.369017       -0.497018        0.082274
N       -0.397435        0.484939       -0.019971
10
  Step 48: 48.0 fs
C       -1.782447       -0.063181       -0.019560
H       -2.366223        0.364194        0.804498
H       -2.114201        0.175388       -0.893044
H       -1.748567       -1.119593        0.051444
C        1.783290        0.093103       -0.019176
H        2.486911       -0.563010        0.615216
H        2.160973       -0.200900       -1.133593
H        1.838721        1.231512        0.233946
N        0.369713       -0.495184        0.076978
N       -0.388879        0.477693       -0.020707
10
  Step 49: 49.0 fs
C       -1.788911       -0.063993       -0.014066
H       -2.367837        0.374472        0.819111
H       -2.149066        0.181200       -0.966355
H       -1.748854       -1.089263        0.060818
C        1.785345        0.099309       -0.016691
H        2.501728       -0.587730        0.610472
H        2.116051       -0.217401       -1.095541
H        1.819322        1.229170        0.234883
N        0.371696       -0.492039        0.071564
N       -0.380873        0.469721       -0.021045
10
  Step 50: 50.0 fs
C       -1.794800       -0.063049       -0.007642
H       -2.368401        0.386019        0.829557
H       -2.195817        0.194475       -1.054586
H       -1.748961       -1.086131        0.074415
C        1.788645        0.103879       -0.014639
H        2.504137       -0.597652        0.600623
H        2.066676       -0.222048       -1.043272
H        1.800221        1.208572        0.230252
N        0.375205       -0.488133        0.066207
N       -0.373994        0.461609       -0.021051
10
  Step 51: 51.0 fs
C       -1.800854       -0.059677       -0.002566
H       -2.367433        0.398499        0.834098
H       -2.242195        0.207352       -1.127768
H       -1.749573       -1.110810        0.091589
C        1.792723        0.106440       -0.012251
H        2.494151       -0.591745        0.586675
H        2.018581       -0.216671       -0.990245
H        1.782963        1.175719        0.221486
N        0.380422       -0.484062        0.061087
N       -0.368781        0.453959       -0.020804
10
  Step 52: 52.0 fs
C       -1.807249       -0.054713        0.000218
H       -2.365093        0.411926        0.832333
H       -2.281625        0.216068       -1.171848
H       -1.752041       -1.150491        0.110457
C        1.796885        0.106763       -0.008470
H        2.474386       -0.571773        0.571402
H        1.978343       -0.205946       -0.956121
H        1.768742        1.141059        0.211063
N        0.387412       -0.480384        0.056374
N       -0.365665        0.447299       -0.020381
10
  Step 53: 53.0 fs
C       -1.813880       -0.049481        0.000416
H       -2.362053        0.426578        0.825090
H       -2.310727        0.219079       -1.181518
H       -1.757720       -1.188961        0.128890
C        1.800381        0.104716       -0.002606
H        2.450404       -0.542748        0.559418
H        1.950932       -0.194860       -0.958505
H        1.758140        1.117790        0.202064
N        0.396086       -0.477524        0.052214
N       -0.364904        0.441997       -0.019843
10
  Step 54: 54.0 fs
C       -1.820563       -0.045042       -0.002021
H       -2.359207        0.442841        0.814057
H       -2.327693        0.215875       -1.155748
H       -1.767467       -1.214210        0.145237
C        1.802562        0.100347        0.004551
H        2.430780       -0.513051        0.557145
H        1.937440       -0.183851       -0.998023
H        1.751203        1.116024        0.196844
N        0.406188       -0.475713        0.048708
N       -0.366546        0.438202       -0.019235
10
  Step 55: 55.0 fs
C       -1.827111       -0.042035       -0.006942
H       -2.357276        0.460942        0.801232
H       -2.331887        0.206645       -1.096786
H       -1.781591       -1.219748        0.158494
C        1.802890        0.094287        0.010923
H        2.424985       -0.492158        0.571127
H        1.936312       -0.169280       -1.057456
H        1.747935        1.135930        0.195643
N        0.417309       -0.474963        0.045898
N       -0.370422        0.435844       -0.018584
10
  Step 56: 56.0 fs
C       -1.833302       -0.040747       -0.013821
H       -2.356412        0.480677        0.788362
H       -2.324529        0.192542       -1.011613
H       -1.799954       -1.203761        0.168280
C        1.801206        0.087658        0.014746
H        2.437609       -0.484766        0.603330
H        1.945658       -0.148257       -1.116303
H        1.748563        1.167791        0.196894
N        0.428910       -0.475108        0.043770
N       -0.376170        0.434674       -0.017917
10
  Step 57: 57.0 fs
C       -1.838678       -0.041246       -0.021329
H       -2.356034        0.501268        0.776616
H       -2.311187        0.176836       -0.916686
H       -1.822061       -1.168609        0.174884