10
  Step 0: 0.0 fs
C       -1.803707       -0.067740        0.000066
H       -2.311476        0.330687        0.889264
H       -2.311366        0.329957       -0.889454
H       -1.816417       -1.165813        0.000686
C        1.803670        0.067715        0.000032
H        2.310859       -0.329674        0.890060
H        2.312196       -0.330893       -0.888614
H        1.816241        1.165788       -0.000427
N        0.410953       -0.460073       -0.000173
N       -0.410926        0.460087       -0.000123
10
  Step 1: 1.0 fs
C       -1.794662       -0.060554       -0.011341
H       -2.320818        0.360995        0.870006
H       -2.319858        0.312795       -0.839250
H       -1.762310       -1.219850        0.012807
C        1.807915        0.070820       -0.001275
H        2.268730       -0.287712        0.846036
H        2.285749       -0.388415       -0.903455
H        1.803019        1.114541        0.032334
N        0.405529       -0.451771       -0.000720
N       -0.413613        0.450717        0.010098
10
  Step 2: 2.0 fs
C       -1.785270       -0.055174       -0.021122
H       -2.327810        0.387971        0.850371
H       -2.334614        0.300856       -0.805817
H       -1.711426       -1.257755        0.024536
C        1.811057        0.072791       -0.004504
H        2.239463       -0.257483        0.823712
H        2.258352       -0.440335       -0.913303
H        1.790942        1.083552        0.061288
N        0.400566       -0.444147       -0.001260
N       -0.416539        0.442231        0.020183
10
  Step 3: 3.0 fs
C       -1.775289       -0.052612       -0.028103
H       -2.330659        0.409045        0.830749
H       -2.360273        0.297479       -0.800990
H       -1.667010       -1.271487        0.035165
C        1.812220        0.072747       -0.011160
H        2.232680       -0.248067        0.840389
H        2.230222       -0.481940       -0.914758
H        1.780616        1.088254        0.083716
N        0.396531       -0.437842       -0.001808
N       -0.419942        0.435462        0.030007
10
  Step 4: 4.0 fs
C       -1.765160       -0.053019       -0.032296
H       -2.328534        0.422657        0.812076
H       -2.393400        0.300604       -0.823162
H       -1.631797       -1.258758        0.044037
C        1.811478        0.070609       -0.020581
H        2.245406       -0.257814        0.889799
H        2.202878       -0.510484       -0.907098
H        1.772862        1.125572        0.097435
N        0.393806       -0.433360       -0.002398
N       -0.423953        0.431112        0.039470
10
  Step 5: 5.0 fs
C       -1.755901       -0.055950       -0.034598
H       -2.321702        0.428256        0.795466
H       -2.423862        0.304599       -0.860819
H       -1.607884       -1.221691        0.050685
C        1.809463        0.067144       -0.030455
H        2.266563       -0.277810        0.948876
H        2.178918       -0.525732       -0.892479
H        1.768999        1.177325        0.100277
N        0.392615       -0.430987       -0.003070
N       -0.428509        0.429675        0.048496
10
  Step 6: 6.0 fs
C       -1.748505       -0.060673       -0.036021
H       -2.311512        0.426209        0.782063
H       -2.441769        0.304384       -0.901733
H       -1.596547       -1.167148        0.054921
C        1.806623        0.063417       -0.038589
H        2.286692       -0.299854        0.997507
H        2.161636       -0.529856       -0.875499
H        1.770098        1.224564        0.090915
N        0.392976       -0.430729       -0.003854
N       -0.433317        0.431378        0.057026
10
  Step 7: 7.0 fs
C       -1.743647       -0.066091       -0.037355
H       -2.300198        0.417687        0.773070
H       -2.441063        0.297027       -0.937178
H       -1.597683       -1.108653        0.057085
C        1.803114        0.060350       -0.043520
H        2.300411       -0.318747        1.024367
H        2.154463       -0.526752       -0.862195
H        1.776507        1.254574        0.069392
N        0.394685       -0.432330       -0.004763
N       -0.437898        0.436161        0.065006
10
  Step 8: 8.0 fs
C       -1.741695       -0.070590       -0.039183
H       -2.290504        0.404444        0.769670
H       -2.419545        0.281559       -0.962097
H       -1.609242       -1.067290        0.058334
C        1.798994        0.058521       -0.044506
H        2.305238       -0.331542        1.024680
H        2.159888       -0.520301       -0.857767
H        1.787910        1.260941        0.036951
N        0.397355       -0.435338       -0.005790
N       -0.441681        0.443680        0.072386
10
  Step 9: 9.0 fs
C       -1.742725       -0.072563       -0.041865
H       -2.285124        0.388454        0.772678
H       -2.378043        0.258561       -0.974422
H       -1.628025       -1.064165        0.060258
C        1.794425        0.058058       -0.041535
H        2.300508       -0.336740        0.997989
H        2.178143       -0.512214       -0.863743
H        1.803515        1.242094       -0.004287
N        0.400481       -0.439185       -0.006911
N       -0.444127        0.453344        0.079111
10
  Step 10: 10.0 fs
C       -1.746384       -0.071862       -0.045343
H       -2.286088        0.371436        0.781953
H       -2.320201        0.230127       -0.975297
H       -1.652068       -1.102451        0.063214
C        1.789728        0.058586       -0.035345
H        2.287154       -0.334095        0.947586
H        2.206615       -0.501425       -0.877026
H        1.822203        1.201119       -0.051567
N        0.403534       -0.443271       -0.008087
N       -0.444814        0.464386        0.085132
10
  Step 11: 11.0 fs
C       -1.751931       -0.070124       -0.048928
H       -2.294250        0.354404        0.795742
H       -2.252755        0.199953       -0.970251
H       -1.680784       -1.163607        0.065718
C        1.785231        0.059332       -0.027334
H        2.268455       -0.325208        0.881779
H        2.240614       -0.485708       -0.891828
H        1.842697        1.146629       -0.101882
N        0.406043       -0.447031       -0.009276
N       -0.443492        0.475968        0.090416
10
  Step 12: 12.0 fs
C       -1.758467       -0.069313       -0.051369
H       -2.309184        0.337583        0.810505
H       -2.185056        0.172938       -0.969962
H       -1.713037       -1.224859        0.066049
C        1.780953        0.059350       -0.019461
H        2.251604       -0.314840        0.816299
H        2.274982       -0.463891       -0.902702
H        1.863929        1.093486       -0.152751
N        0.407649       -0.449983       -0.010430
N       -0.440095        0.487283        0.094964
10
  Step 13: 13.0 fs
C       -1.765205       -0.070729       -0.051263
H       -2.329641        0.320894        0.821712
H       -2.126206        0.153692       -0.987074
H       -1.746817       -1.270622        0.063304
C        1.776410        0.057911       -0.014003
H        2.248155       -0.311299        0.773890
H        2.305371       -0.436868       -0.906291
H        1.885344        1.059436       -0.202935
N        0.408133       -0.451751       -0.011505
N       -0.434722        0.497628        0.098817
10
  Step 14: 14.0 fs
C       -1.771795       -0.074855       -0.047992
H       -2.354213        0.304574        0.825250
H       -2.080311        0.144009       -1.026456
H       -1.779830       -1.292924        0.057400
C        1.771143        0.054910       -0.012587
H        2.267648       -0.321260        0.771962
H        2.328842       -0.407401       -0.901670
H        1.906439        1.055059       -0.251450
N        0.407411       -0.452083       -0.012460
N       -0.427608        0.506457        0.102058
10
  Step 15: 15.0 fs
C       -1.778321       -0.081533       -0.042285
H       -2.381811        0.289480        0.818609
H       -2.045813        0.142126       -1.079091
H       -1.809865       -1.289067        0.048798
C        1.765750        0.050717       -0.014974
H        2.306533       -0.341307        0.805420
H        2.344062       -0.379406       -0.890079
H        1.925545        1.076355       -0.295066
N        0.405513       -0.450870       -0.013261
N       -0.419099        0.513399        0.104797
10
  Step 16: 16.0 fs
C       -1.784929       -0.090230       -0.035610
H       -2.411858        0.277083        0.801306
H       -2.019633        0.144848       -1.129402
H       -1.834942       -1.260633        0.038301
C        1.761640        0.045930       -0.019681
H        2.351026       -0.361136        0.853784
H        2.351272       -0.357129       -0.874357
H        1.939856        1.110165       -0.328505
N        0.402581       -0.448142       -0.013887
N       -0.409648        0.518267        0.107153
10
  Step 17: 17.0 fs
C       -1.791602       -0.100126       -0.029347
H       -2.444252        0.269245        0.774607
H       -1.999857        0.149492       -1.164613
H       -1.853454       -1.214073        0.026978
C        1.759961        0.041267       -0.025299
H        2.388504       -0.372409        0.898993
H        2.352149       -0.344471       -0.858422
H        1.946783        1.143521       -0.347075
N        0.398859       -0.444063       -0.014329
N       -0.399787        0.521044        0.109249
10
  Step 18: 18.0 fs
C       -1.798169       -0.109939       -0.024502
H       -2.479114        0.267794        0.740848
H       -1.985738        0.154307       -1.177582
H       -1.864449       -1.162765        0.016182
C        1.761213        0.037392       -0.030818
H        2.411447       -0.371052        0.930470
H        2.349409       -0.344507       -0.846723
H        1.944878        1.167504       -0.348256
N        0.394691       -0.438918       -0.014597
N       -0.390095        0.521873        0.111213
10
  Step 19: 19.0 fs
C       -1.804392       -0.117818       -0.021686
H       -2.516306        0.273951        0.702596
H       -1.977069        0.158279       -1.166126
H       -1.867965       -1.127537        0.007468
C        1.765409        0.034777       -0.035560
H        2.416400       -0.355986        0.943193
H        2.345798       -0.358903       -0.843041
H        1.933986        1.177106       -0.331775
N        0.390496       -0.433103       -0.014719
N       -0.381169        0.521047        0.113174
10
  Step 20: 20.0 fs
C       -1.810082       -0.121982       -0.021087
H       -2.554829        0.287706        0.661932
H       -1.973815        0.161010       -1.132295
H       -1.864761       -1.128388        0.002247
C        1.772333        0.033620       -0.039187
H        2.402684       -0.328006        0.935742
H        2.342626       -0.387168       -0.848689
H        1.915075        1.170426       -0.299247
N        0.386742       -0.427108       -0.014741
N       -0.373587        0.518989        0.115262
10
  Step 21: 21.0 fs
C       -1.815206       -0.122187       -0.022392
H       -2.592627        0.307603        0.620388
H       -1.976048        0.162874       -1.082817
H       -1.855401       -1.167082        0.001364
C        1.781653        0.033785       -0.041775
H        2.372048       -0.289480        0.909946
H        2.339062       -0.426249       -0.861548
H        1.890073        1.148778       -0.253999
N        0.383896       -0.421475       -0.014723
N       -0.367868        0.516209        0.117598
10
  Step 22: 22.0 fs
C       -1.819814       -0.119976       -0.024705
H       -2.626946        0.331107        0.579403
H       -1.984105        0.165405       -1.030363
H       -1.840446       -1.224859        0.004964
C        1.792815        0.034769       -0.043847
H        2.329388       -0.244768        0.872243
H        2.332948       -0.470881       -0.876934
H        1.861639        1.117806       -0.201057
N        0.382365       -0.416733       -0.014723
N       -0.364421        0.513236        0.120282
10
  Step 23: 23.0 fs
C       -1.823872       -0.117290       -0.026624
H       -2.655007        0.355315        0.540772
H       -1.998737        0.171332       -0.992944
H       -1.821325       -1.279348        0.012500
C        1.804849        0.035816       -0.046460
H        2.284017       -0.200872        0.836361
H        2.322438       -0.514889       -0.889670
H        1.832676        1.088178       -0.146730
N        0.382440       -0.413321       -0.014802
N       -0.363527        0.510519        0.123380
10
  Step 24: 24.0 fs
C       -1.827259       -0.115475       -0.026911
H       -2.674688        0.377648        0.506722
H       -2.020363        0.182872       -0.986310
H       -1.800135       -1.315224        0.022984
C        1.816435        0.036135       -0.051174
H        2.248794       -0.166623        0.823219
H        2.307000       -0.552569       -0.895629
H        1.805531        1.073361       -0.097353
N        0.384244       -0.411524       -0.015006
N       -0.365308        0.508352        0.126909
10
  Step 25: 25.0 fs
C       -1.829943       -0.114994       -0.025508
H       -2.684888        0.396294        0.479607
H       -2.047196        0.198497       -1.011885
H       -1.779054       -1.324759        0.035347
C        1.826536        0.035270       -0.059058
H        2.232690       -0.148299        0.848560
H        2.287751       -0.579808       -0.892759
H        1.781700        1.081887       -0.057612
N        0.387688       -0.411411       -0.015366
N       -0.369699        0.506816        0.130834
10
  Step 26: 26.0 fs
C       -1.832049       -0.115591       -0.023561
H       -2.685508        0.410290        0.461403
H       -2.074869        0.212813       -1.056313
H       -1.760027       -1.305855        0.048712
C        1.834986        0.033392       -0.069181
H        2.233117       -0.145552        0.905219
H        2.267363       -0.595022       -0.881786
H        1.762574        1.110634       -0.030118
N        0.392483       -0.412835       -0.015891
N       -0.376450        0.505792        0.135066
10
  Step 27: 27.0 fs
C       -1.833706       -0.116654       -0.022435
H       -2.677305        0.419449        0.453398
H       -2.098694        0.220248       -1.103100
H       -1.744620       -1.261402        0.062480
C        1.841996        0.031287       -0.079147
H        2.241262       -0.154009        0.970284
H        2.249739       -0.599535       -0.866318
H        1.750057        1.147694       -0.016197
N        0.398195       -0.415464       -0.016571
N       -0.385150        0.505009        0.139476
10
  Step 28: 28.0 fs
C       -1.834934       -0.117333       -0.023098
H       -2.661777        0.424271        0.456201
H       -2.115433        0.217368       -1.140131
H       -1.733814       -1.200153        0.076512
C        1.847537        0.029989       -0.086686
H        2.250225       -0.169255        1.023699
H        2.239464       -0.597234       -0.852224
H        1.745997        1.180399       -0.016282
N        0.404321       -0.418855       -0.017373
N       -0.395275        0.504125        0.143909
10
  Step 29: 29.0 fs
C       -1.835702       -0.116363       -0.026116
H       -2.640987        0.425821        0.469870
H       -2.123536        0.202932       -1.160466
H       -1.727539       -1.138753        0.091562
C        1.851389        0.030361       -0.090298
H        2.256452       -0.187942        1.053906
H        2.240604       -0.592916       -0.845627
H        1.751525        1.199811       -0.029894
N        0.410347       -0.422531       -0.018259
N       -0.406236        0.502797        0.148204
10
  Step 30: 30.0 fs
C       -1.836008       -0.112147       -0.031785
H       -2.617197        0.425499        0.493941
H       -2.122773        0.177309       -1.161092
H       -1.724487       -1.099892        0.109628
C        1.853427        0.032777       -0.089364
H        2.258517       -0.207549        1.055867
H        2.254888       -0.589306       -0.849508
H        1.766843        1.201495       -0.055686
N        0.415784       -0.426048       -0.019193
N       -0.417421        0.500732        0.152203
10
  Step 31: 31.0 fs
C       -1.835832       -0.103790       -0.040060
H       -2.592362        0.424694        0.527252
H       -2.114090        0.142246       -1.142565
H       -1.723419       -1.099338        0.132817
C        1.853803        0.036979       -0.084136
H        2.256258       -0.226126        1.029048
H        2.280540       -0.585210       -0.861631
H        1.791283        1.185192       -0.091584
N        0.420199       -0.429038       -0.020152
N       -0.428240        0.497717        0.155759
10
  Step 32: 32.0 fs
C       -1.835006       -0.092312       -0.050196
H       -2.567572        0.424316        0.567588
H       -2.099790        0.100910       -1.109914
H       -1.725070       -1.130935        0.160472
C        1.852894        0.042189       -0.075569
H        2.250639       -0.242342        0.977046
H        2.312950       -0.576827       -0.876016
H        1.823429        1.154887       -0.135005
N        0.423247       -0.431222       -0.021126
N       -0.438153        0.493622        0.158739
10
  Step 33: 33.0 fs
C       -1.833253       -0.079966       -0.060530
H       -2.542756        0.424407        0.611267
H       -2.083958        0.057776       -1.074570
H       -1.731272       -1.174081        0.188821
C        1.851065        0.047372       -0.065110
H        2.244340       -0.256054        0.908925
H        2.346525       -0.560732       -0.886427
H        1.861355        1.119058       -0.183215
N        0.424687       -0.432410       -0.022127
N       -0.446698        0.488400        0.161027
10
  Step 34: 34.0 fs
C       -1.830318       -0.068744       -0.068748
H       -2.517126        0.424310        0.653320
H       -2.072243        0.017567       -1.054015
H       -1.742967       -1.210414        0.213703
C        1.848388        0.051617       -0.054647
H        2.242928       -0.269495        0.841448
H        2.376250       -0.535797       -0.888796
H        1.903090        1.089125       -0.233850
N        0.424409       -0.432499       -0.023176
N       -0.453527        0.482077        0.162528
10
  Step 35: 35.0 fs
C       -1.826097       -0.059819       -0.072863
H       -2.490149        0.423414        0.688605
H       -2.069567       -0.016746       -1.063054
H       -1.759829       -1.229351        0.232264
C        1.844530        0.054624       -0.046321
H        2.254856       -0.287773        0.797185
H        2.398443       -0.503539       -0.881943
H        1.946938        1.074555       -0.284697
N        0.422444       -0.431478       -0.024305
N       -0.458406        0.474771        0.163176
10
  Step 36: 36.0 fs
C       -1.820838       -0.053698       -0.072508
H       -2.462322        0.421835        0.713200
H       -2.076547       -0.044423       -1.100009
H       -1.780722       -1.226629        0.243105
C        1.839216        0.056796       -0.041494
H        2.286117       -0.314747        0.791006
H        2.411092       -0.467697       -0.867508
H        1.991060        1.077283       -0.332555
N        0.418970       -0.429432       -0.025552
N       -0.461215        0.466694        0.162941
10
  Step 37: 37.0 fs
C       -1.815084       -0.050574       -0.068882
H       -2.435339        0.420696        0.725248
H       -2.089586       -0.065088       -1.147954
H       -1.804122       -1.202268        0.245940
C        1.832955        0.058613       -0.039678
H        2.332343       -0.346430        0.816140
H        2.413973       -0.433440       -0.849342
H        2.032715        1.091912       -0.372654
N        0.414287       -0.426558       -0.026962
N       -0.461949        0.458164        0.161837
10
  Step 38: 38.0 fs
C       -1.809378       -0.050440       -0.063575
H       -2.411822        0.422082        0.725114
H       -2.104200       -0.077833       -1.188754
H       -1.828371       -1.160104        0.241501
C        1.826811        0.060378       -0.039306
H        2.381775       -0.373666        0.853682
H        2.408548       -0.406447       -0.832568
H        2.068430        1.110549       -0.399896
N        0.408810       -0.423156       -0.028596
N       -0.460728        0.449594        0.159922
10
  Step 39: 39.0 fs
C       -1.804096       -0.052932       -0.057918
H       -2.394829        0.428751        0.714960
H       -2.116989       -0.081758       -1.210643
H       -1.851925       -1.108594        0.231828
C        1.821670        0.062377       -0.038975
H        2.423643       -0.389078        0.887859
H        2.397449       -0.391849       -0.822422
H        2.094953        1.126788       -0.410480
N        0.403047       -0.419628       -0.030520
N       -0.457816        0.441475        0.157289
10
  Step 40: 40.0 fs
C       -1.799436       -0.057104       -0.052944
H       -2.387035        0.443416        0.697776
H       -2.125826       -0.076411       -1.208338
H       -1.873797       -1.062187        0.220792
C        1.818054        0.064850       -0.037842
H        2.451190       -0.389081        0.909652
H        2.383171       -0.392891       -0.822543
H        2.109936        1.136673       -0.402572
N        0.397568       -0.416450       -0.032799
N       -0.453614        0.434336        0.154071
10
  Step 41: 41.0 fs
C       -1.795484       -0.061499       -0.049369
H       -2.389652        0.467581        0.676011
H       -2.129586       -0.061899       -1.181495
H       -1.894081       -1.039127        0.213712
C        1.816279        0.067833       -0.035604
H        2.460991       -0.372913        0.914908
H        2.366622       -0.409726       -0.833232
H        2.112219        1.138475       -0.376334
N        0.392969       -0.414123       -0.035484
N       -0.448639        0.428696        0.150422
10
  Step 42: 42.0 fs
C       -1.792308       -0.064916       -0.047329
H       -2.401638        0.500432        0.650679
H       -2.128129       -0.038880       -1.134258
H       -1.913531       -1.051201        0.214674
C        1.816543        0.071068       -0.032417
H        2.452099       -0.341812        0.902858
H        2.346842       -0.439141       -0.851116
H        2.101864        1.132555       -0.333811
N        0.389800       -0.413115       -0.038596
N       -0.443450        0.424996        0.146503
10
  Step 43: 43.0 fs
C       -1.790067       -0.067346       -0.046055
H       -2.419853        0.538721        0.621679
H       -2.122737       -0.008500       -1.076249
H       -1.931934       -1.092792        0.223385
C        1.818808        0.074043       -0.028754
H        2.426023       -0.298944        0.876057
H        2.322226       -0.475434       -0.870653
H        2.080172        1.121828       -0.278903
N        0.388488       -0.413771       -0.042109
N       -0.438542        0.423535        0.142455
10
  Step 44: 44.0 fs
C       -1.788905       -0.069656       -0.043983
H       -2.440108        0.577697        0.588983
H       -2.116652        0.027873       -1.023290
H       -1.947778       -1.146010        0.236091
C        1.822602        0.076129       -0.025363
H        2.387649       -0.249912        0.841769
H        2.292099       -0.512010       -0.886366
H        2.049484        1.112218       -0.217066
N        0.389260       -0.416250       -0.045938
N       -0.434261        0.424411        0.138377
10
  Step 45: 45.0 fs
C       -1.788799       -0.072696       -0.039392
H       -2.458487        0.612596        0.553706
H       -2.114321        0.069077       -0.993892
H       -1.959541       -1.193348        0.248582
C        1.826893        0.076830       -0.023405
H        2.346584       -0.203278        0.814235
H        2.257407       -0.542726       -0.894158
H        2.012533        1.111608       -0.154429
N        0.392100       -0.420490       -0.049940
N       -0.430755        0.427483        0.134326
10
  Step 46: 46.0 fs
C       -1.789745       -0.076879       -0.031506
H       -2.472250        0.639763        0.518226
H       -2.117745        0.113582       -0.997731
H       -1.966442       -1.223241        0.257732
C        1.830320        0.076094       -0.024367
H        2.315587       -0.168900        0.812923
H        2.220759       -0.562996       -0.892085
H        1.971404        1.125721       -0.096287
N        0.396744       -0.426214       -0.053930
N       -0.427962        0.432384        0.130315
10
  Step 47: 47.0 fs
C       -1.791979       -0.082063       -0.021162
H       -2.480145        0.657069        0.485624
H       -2.123685        0.157580       -1.027331
H       -1.968404       -1.230001        0.261774
C        1.831992        0.074305       -0.028945
H        2.301911       -0.152418        0.848976
H        2.186142       -0.570536       -0.880774
H        1.927171        1.153438       -0.046206
N        0.402717       -0.432982       -0.057709
N       -0.425655        0.438565        0.126326
10
  Step 48: 48.0 fs
C       -1.795737       -0.087686       -0.010037
H       -2.482361        0.663946        0.459009
H       -2.126671        0.195395       -1.066392
H       -1.965911       -1.212752        0.260198
C        1.832010        0.072043       -0.035827
H        2.300607       -0.151846        0.911650
H        2.158563       -0.565968       -0.863882
H        1.880740        1.186780       -0.006407
N        0.409414       -0.440267       -0.061090
N       -0.423530        0.445379        0.122320
10
  Step 49: 49.0 fs
C       -1.800945       -0.092954        0.000327
H       -2.480347        0.661322        0.441122
H       -2.122860        0.221959       -1.100889
H       -1.960012       -1.175522        0.253770
C        1.830793        0.070048       -0.042533
H        2.301887       -0.161772        0.978807
H        2.143556       -0.552877       -0.847991
H        1.833731        1.215601        0.021672
N        0.416202       -0.447535       -0.063920
N       -0.421284        0.452167        0.118250
10
  Step 50: 50.0 fs
C       -1.807158       -0.096840        0.008768
H       -2.476565        0.651529        0.434242
H       -2.110886        0.234113       -1.122276
H       -1.952503       -1.128608        0.244749
C        1.828467        0.069101       -0.046856
H        2.298981       -0.177507        1.032538
H        2.146200       -0.536546       -0.840929
H        1.788404        1.231846        0.037246
N        0.422510       -0.454318       -0.066091
N       -0.418666        0.458334        0.114080
10
  Step 51: 51.0 fs
C       -1.813689       -0.098003        0.014399
H       -2.474046        0.637939        0.440147
H       -2.091163        0.230554       -1.126318
H       -1.945839       -1.089089        0.236953
C        1.824966        0.069661       -0.047523
H        2.288959       -0.195764        1.062789
H        2.169330       -0.520628       -0.847581
H        1.747171        1.231307        0.040333
N        0.427884       -0.460256       -0.067553
N       -0.415499        0.463387        0.109795
10
  Step 52: 52.0 fs
C       -1.819818       -0.095154        0.016637
H       -2.475514        0.623997        0.459832
H       -2.065303        0.211580       -1.112020
H       -1.942238       -1.075517        0.234562
C        1.820349        0.071570       -0.044349
H        2.271238       -0.214222        1.065326
H        2.211731       -0.504179       -0.866020
H        1.712146        1.213834        0.031793
N        0.431996       -0.465119       -0.068316
N       -0.411671        0.466968        0.105406
10
  Step 53: 53.0 fs
C       -1.825067       -0.088086        0.015497
H       -2.482237        0.611881        0.492933
H       -2.035924        0.179100       -1.081689
H       -1.942013       -1.094307        0.239217
C        1.814931        0.074104       -0.038036
H        2.246696       -0.231221        1.040155
H        2.268048       -0.482599       -0.888322
H        1.684821        1.183366        0.013273
N        0.434625       -0.468813       -0.068443
N       -0.407124        0.468859        0.100949
10
  Step 54: 54.0 fs
C       -1.829292       -0.078145        0.011895
H       -2.493178        0.601530        0.537008
H       -2.006741        0.136859       -1.042399
H       -1.943217       -1.133460        0.248732
C        1.809178        0.076265       -0.029775
H        2.217598       -0.245898        0.991488
H        2.330646       -0.451339       -0.905223
H        1.665799        1.148121       -0.012947
N        0.435644       -0.471368       -0.068040
N       -0.401860        0.468990        0.096476
10
  Step 55: 55.0 fs
C       -1.832502       -0.067241        0.007628
H       -2.505161        0.590842        0.587251
H       -1.982554        0.090291       -1.007823
H       -1.943398       -1.174195        0.259521
C        1.803483        0.077132       -0.021045
H        2.188209       -0.258891        0.929302
H        2.391884       -0.408377       -0.909911
H        1.654643        1.119441       -0.044292
N        0.435024       -0.472924       -0.067245
N       -0.395962        0.467419        0.092045
10
  Step 56: 56.0 fs
C       -1.834702       -0.056887        0.004934
H       -2.514190        0.577176        0.637311
H       -1.968335        0.044984       -0.995959
H       -1.940835       -1.202208        0.268934
C        1.797937        0.076285       -0.013676
H        2.165629       -0.273548        0.871410
H        2.445513       -0.354606       -0.899218
H        1.650280        1.107944       -0.078156
N        0.432837       -0.473710       -0.066217
N       -0.389616        0.464332        0.087711
10
  Step 57: 57.0 fs
C       -1.835910       -0.047929        0.005297
H       -2.517081        0.558954        0.680989
H       -1.967104        0.004190       -1.017001
H       -1.934620       -1.209938        0.275721