10
  Step 0: 0.0 fs
C       -1.803710       -0.067741        0.000066
H       -2.311488        0.330659        0.889285
H       -2.311379        0.329956       -0.889468
H       -1.816435       -1.165814        0.000654
C        1.803676        0.067710        0.000030
H        2.310885       -0.329689        0.890044
H        2.312179       -0.330877       -0.888636
H        1.816243        1.165780       -0.000412
N        0.410957       -0.460069       -0.000161
N       -0.410930        0.460090       -0.000130
10
  Step 1: 1.0 fs
C       -1.810083       -0.074266       -0.012853
H       -2.359191        0.362168        0.921396
H       -2.365400        0.301312       -0.873795
H       -1.766639       -1.092931        0.014738
C        1.801864        0.062023       -0.004701
H        2.332325       -0.341461        0.876005
H        2.303674       -0.262661       -0.830108
H        1.855862        1.121005       -0.041819
N        0.412325       -0.453355        0.001975
N       -0.405331        0.457548        0.008183
10
  Step 2: 2.0 fs
C       -1.816872       -0.077894       -0.024288
H       -2.397837        0.386323        0.940350
H       -2.417611        0.273983       -0.861231
H       -1.718460       -1.051498        0.029719
C        1.799327        0.056353       -0.007353
H        2.351794       -0.352048        0.861637
H        2.308334       -0.209576       -0.798442
H        1.893120        1.090637       -0.079513
N        0.413877       -0.447154        0.004032
N       -0.400240        0.455688        0.016319
10
  Step 3: 3.0 fs
C       -1.824406       -0.076678       -0.033566
H       -2.422590        0.399071        0.940370
H       -2.465951        0.248323       -0.853647
H       -1.671461       -1.064142        0.047442
C        1.795478        0.050716       -0.006375
H        2.367802       -0.360674        0.846968
H        2.336705       -0.182206       -0.813943
H        1.926133        1.084847       -0.110279
N        0.415778       -0.441922        0.005915
N       -0.396082        0.455150        0.024112
10
  Step 4: 4.0 fs
C       -1.832658       -0.071740       -0.040320
H       -2.431405        0.398859        0.920215
H       -2.508052        0.224014       -0.851902
H       -1.627849       -1.118310        0.067668
C        1.791197        0.045123       -0.002710
H        2.379700       -0.367292        0.832678
H        2.381450       -0.179200       -0.867407
H        1.953078        1.102663       -0.131622
N        0.418101       -0.437987        0.007542
N       -0.393158        0.456417        0.031414
10
  Step 5: 5.0 fs
C       -1.841175       -0.065741       -0.044334
H       -2.424397        0.386096        0.881929
H       -2.541330        0.200447       -0.856077
H       -1.593504       -1.183687        0.087523
C        1.788206        0.039986        0.001330
H        2.387721       -0.372546        0.819934
H        2.425011       -0.193502       -0.933496
H        1.971946        1.133352       -0.141770
N        0.420790       -0.435501        0.008863
N       -0.391639        0.459709        0.038101
10
  Step 6: 6.0 fs
C       -1.849388       -0.060738       -0.045781
H       -2.404261        0.363252        0.831287
H       -2.563207        0.177026       -0.865656
H       -1.573290       -1.237934        0.104144
C        1.787742        0.035979        0.003958
H        2.392735       -0.377446        0.810013
H        2.454405       -0.218753       -0.992544
H        1.981153        1.164056       -0.139957
N        0.423669       -0.434414        0.009851
N       -0.391554        0.464962        0.044072
10
  Step 7: 7.0 fs
C       -1.856605       -0.058051       -0.045467
H       -2.377654        0.335745        0.779725
H       -2.571568        0.153411       -0.879768
H       -1.569424       -1.269686        0.115791
C        1.790324        0.033633        0.004224
H        2.395827       -0.382977        0.803949
H        2.463462       -0.250154       -1.033773
H        1.980132        1.184978       -0.126572
N        0.426478       -0.434502        0.010502
N       -0.392787        0.471873        0.049252
10
  Step 8: 8.0 fs
C       -1.861849       -0.058721       -0.044887
H       -2.356106        0.312482        0.745395
H       -2.565192        0.129698       -0.897325
H       -1.582145       -1.274305        0.121647
C        1.795991        0.033158        0.001765
H        2.397790       -0.389749        0.802154
H        2.450282       -0.283898       -1.051998
H        1.969423        1.190634       -0.102976
N        0.428907       -0.435411        0.010828
N       -0.395098        0.479985        0.053592
10
  Step 9: 9.0 fs
C       -1.864150       -0.063492       -0.045600
H       -2.351720        0.302596        0.746117
H       -2.544064        0.106534       -0.917113
H       -1.610330       -1.251200        0.121501
C        1.804495        0.034402       -0.003395
H        2.398801       -0.397782        0.804173
H        2.415423       -0.316760       -1.045285
H        1.950517        1.179652       -0.071241
N        0.430644       -0.436720        0.010857
N       -0.398164        0.488764        0.057065
10
  Step 10: 10.0 fs
C       -1.863420       -0.072169       -0.047769
H       -2.366620        0.307650        0.782376
H       -2.509527        0.085156       -0.938077
H       -1.651475       -1.203800        0.115740
C        1.815361        0.036864       -0.010896
H        2.398437       -0.406529        0.808730
H        2.361502       -0.346068       -1.014540
H        1.925719        1.154762       -0.033950
N        0.431407       -0.437998        0.010633
N       -0.401627        0.497660        0.059665
10
  Step 11: 11.0 fs
C       -1.860580       -0.083321       -0.050018
H       -2.391749        0.320818        0.835400
H       -2.464234        0.067351       -0.959690
H       -1.701278       -1.142112        0.105874
C        1.827843        0.039725       -0.019991
H        2.396024       -0.415115        0.814118
H        2.293810       -0.370273       -0.964833
H        1.897970        1.123143        0.006066
N        0.430972       -0.438845        0.010215
N       -0.405149        0.506140        0.061408
10
  Step 12: 12.0 fs
C       -1.856739       -0.094494       -0.050951
H       -2.416911        0.334374        0.884332
H       -2.411706        0.055214       -0.982033
H       -1.753517       -1.087128        0.095465
C        1.840855        0.042098       -0.029364
H        2.391048       -0.422676        0.818661
H        2.221495       -0.390627       -0.908528
H        1.870390        1.095566        0.046143
N        0.429185       -0.438924        0.009687
N       -0.408468        0.513695        0.062339
10
  Step 13: 13.0 fs
C       -1.852678       -0.102604       -0.049963
H       -2.435814        0.343576        0.915607
H       -2.355514        0.050688       -1.005388
H       -1.801988       -1.069649        0.089989
C        1.853024        0.043575       -0.036984
H        2.383491       -0.428696        0.821097
H        2.157413       -0.413587       -0.867695
H        1.845673        1.082645        0.084046
N        0.425961       -0.437976        0.009151
N       -0.411417        0.519850        0.062539
10
  Step 14: 14.0 fs
C       -1.848660       -0.105856       -0.046929
H       -2.445590        0.346482        0.922491
H       -2.298530        0.054941       -1.029475
H       -1.844299       -1.106906        0.092818
C        1.863161        0.044555       -0.040786
H        2.373992       -0.433235        0.820861
H        2.112739       -0.448393       -0.865714
H        1.825800        1.088771        0.117586
N        0.421299       -0.435828        0.008728
N       -0.413912        0.524205        0.062116
10
  Step 15: 15.0 fs
C       -1.844689       -0.105530       -0.041761
H       -2.445550        0.343035        0.902896
H       -2.242642        0.067856       -1.052717
H       -1.880738       -1.180575        0.101530
C        1.870866        0.045389       -0.040508
H        2.363845       -0.436998        0.818280
H        2.089054       -0.494793       -0.904940
H        1.812337        1.109991        0.144129
N        0.415303       -0.432406        0.008531
N       -0.415923        0.526492        0.061199
10
  Step 16: 16.0 fs
C       -1.840810       -0.104063       -0.034631
H       -2.436848        0.334607        0.858587
H       -2.189015        0.087902       -1.072202
H       -1.910611       -1.259268        0.111484
C        1.876248        0.045814       -0.037823
H        2.354790       -0.441191        0.814500
H        2.081099       -0.539969       -0.965033
H        1.806594        1.137532        0.161007
N        0.408215       -0.427746        0.008642
N       -0.417472        0.526608        0.059934
10
  Step 17: 17.0 fs
C       -1.836954       -0.103196       -0.026271
H       -2.423235        0.324352        0.796027
H       -2.138562        0.112554       -1.084521
H       -1.932573       -1.321326        0.119405
C        1.879363        0.045579       -0.034570
H        2.348589       -0.447162        0.811006
H        2.083846       -0.570957       -1.024191
H        1.809479        1.162430        0.166334
N        0.400424       -0.422004        0.009090
N       -0.418648        0.524621        0.058479
10
  Step 18: 18.0 fs
C       -1.832651       -0.104024       -0.018025
H       -2.412725        0.318348        0.728103
H       -2.092305        0.138950       -1.087149
H       -1.945671       -1.355930        0.123712
C        1.880183        0.044704       -0.031953
H        2.346458       -0.455850        0.808876
H        2.094060       -0.580627       -1.068615
H        1.821317        1.178029        0.159404
N        0.392423       -0.415472        0.009871
N       -0.419616        0.520770        0.057006
10
  Step 19: 19.0 fs
C       -1.827011       -0.107412       -0.011590
H       -2.417603        0.325688        0.672629
H       -2.051450        0.164372       -1.079455
H       -1.949485       -1.358736        0.123918
C        1.878748        0.043286       -0.030602
H        2.348582       -0.467272        0.808080
H        2.109534       -0.566564       -1.091191
H        1.841795        1.180644        0.140661
N        0.384768       -0.408579        0.010963
N       -0.420623        0.515459        0.055696
10
  Step 20: 20.0 fs
C       -1.819368       -0.113794       -0.008018
H       -2.446973        0.353225        0.641644
H       -2.017243        0.186637       -1.063285
H       -1.943996       -1.329305        0.120179
C        1.875238        0.041336       -0.030760
H        2.354019       -0.480373        0.807331
H        2.128537       -0.529308       -1.089138
H        1.869992        1.169666        0.111562
N        0.378050       -0.401862        0.012338
N       -0.421980        0.509230        0.054731
10
  Step 21: 21.0 fs
C       -1.810231       -0.122489       -0.006797
H       -2.495741        0.397392        0.630526
H       -1.990898        0.204376       -1.042791
H       -1.929623       -1.271408        0.113194
C        1.869954        0.038737       -0.032390
H        2.361040       -0.493365        0.804669
H        2.149666       -0.471726       -1.063143
H        1.904488        1.147606        0.074480
N        0.372853       -0.395916        0.013961
N       -0.424018        0.502717        0.054275
10
  Step 22: 22.0 fs
C       -1.800909       -0.131641       -0.006623
H       -2.548616        0.446592        0.625941
H       -1.973487        0.217110       -1.023357
H       -1.907649       -1.196100        0.104546
C        1.863215        0.035352       -0.035137
H        2.367723       -0.504347        0.798363
H        2.172216       -0.399582       -1.018533
H        1.943509        1.120016        0.032637
N        0.369700       -0.391309        0.015789
N       -0.427023        0.496559        0.054460
10
  Step 23: 23.0 fs
C       -1.792445       -0.138466       -0.006594
H       -2.591914        0.489778        0.617951
H       -1.965750        0.224969       -1.010013
H       -1.880895       -1.127018        0.097345
C        1.855192        0.031212       -0.038149
H        2.372460       -0.511851        0.787545
H        2.197247       -0.322426       -0.967766
H        1.985125        1.094569       -0.010013
N        0.368982       -0.388493        0.017757
N       -0.431189        0.491311        0.055376
10
  Step 24: 24.0 fs
C       -1.785328       -0.139581       -0.006498
H       -2.617558        0.519772        0.602263
H       -1.967806        0.228028       -1.005912
H       -1.853348       -1.099173        0.096035
C        1.845762        0.026697       -0.040003
H        2.374348       -0.515256        0.772565
H        2.228852       -0.252843       -0.931264
H        2.027228        1.078636       -0.049107
N        0.370888       -0.387715        0.019777
N       -0.436546        0.487357        0.057054
10
  Step 25: 25.0 fs
C       -1.779855       -0.133276       -0.006420
H       -2.622001        0.532916        0.578321
H       -1.978937        0.225822       -1.011856
H       -1.827235       -1.131111        0.103185
C        1.834729        0.022401       -0.039500
H        2.373401       -0.515000        0.755086
H        2.271841       -0.201057       -0.927610
H        2.067216        1.075797       -0.080416
N        0.375345       -0.388970        0.021752
N       -0.442904        0.484859        0.059466
10
  Step 26: 26.0 fs
C       -1.776346       -0.121556       -0.006365
H       -2.605055        0.528504        0.547926
H       -1.997504        0.217349       -1.026502
H       -1.802093       -1.199983        0.116453
C        1.822540        0.018810       -0.037071
H        2.370573       -0.512587        0.737858
H        2.323884       -0.169448       -0.956217
H        2.101758        1.084241       -0.100525
N        0.381985       -0.392006        0.023597
N       -0.449829        0.483757        0.062525
10
  Step 27: 27.0 fs
C       -1.774847       -0.107684       -0.006469
H       -2.570008        0.508815        0.515012
H       -2.021035        0.201379       -1.046759
H       -1.777827       -1.270736        0.131669
C        1.810384        0.016369       -0.034480
H        2.367487       -0.510196        0.724007
H        2.374512       -0.155286       -0.999949
H        2.127167        1.098368       -0.107365
N        0.390186       -0.396392        0.025256
N       -0.456726        0.483796        0.066102
10
  Step 28: 28.0 fs
C       -1.774914       -0.094173       -0.007264
H       -2.525066        0.480007        0.486306
H       -2.046581        0.177025       -1.068553
H       -1.755377       -1.321054        0.145922
C        1.799507        0.015537       -0.033300
H        2.365692       -0.509818        0.715801
H        2.413068       -0.155339       -1.041837
H        2.140244        1.111889       -0.100379
N        0.399177       -0.401616        0.026694
N       -0.462940        0.484604        0.070046
10
  Step 29: 29.0 fs
C       -1.775485       -0.082967       -0.009696
H       -2.484974        0.453175        0.472159
H       -2.071305        0.144277       -1.087751
H       -1.735935       -1.340834        0.157738
C        1.790848        0.016603       -0.034310
H        2.365759       -0.512349        0.713662
H        2.432901       -0.166809       -1.071452
H        2.138922        1.119938       -0.080340
N        0.408148       -0.407174        0.027882
N       -0.467847        0.485785        0.074200
10
  Step 30: 30.0 fs
C       -1.775242       -0.075651       -0.014809
H       -2.466894        0.441132        0.483925
H       -2.093009        0.104255       -1.100880
H       -1.720529       -1.326967        0.166525
C        1.785051        0.019556       -0.037620
H        2.366921       -0.517272        0.716058
H        2.430947       -0.187043       -1.083559
H        2.122551        1.120040       -0.049024
N        0.416346       -0.412634        0.028792
N       -0.470901        0.486996        0.078418
10
  Step 31: 31.0 fs
C       -1.773800       -0.072811       -0.022875
H       -2.476299        0.447966        0.524523
H       -2.110451        0.059223       -1.105734
H       -1.709865       -1.280629        0.172235
C        1.782474        0.024068       -0.042924
H        2.367531       -0.523070        0.720333
H        2.406640       -0.213340       -1.076251
H        2.091991        1.112437       -0.008853
N        0.423136       -0.417661        0.029396
N       -0.471652        0.487992        0.082562
10
  Step 32: 32.0 fs
C       -1.772200       -0.073651       -0.032894
H       -2.501084        0.464963        0.582957
H       -2.123426        0.012295       -1.102019
H       -1.704216       -1.207479        0.175521
C        1.783130        0.029541       -0.049675
H        2.365949       -0.527995        0.723866
H        2.361529       -0.242931       -1.050345
H        2.049569        1.100193        0.037431
N        0.428046       -0.422027        0.029668
N       -0.469772        0.488642        0.086502
10
  Step 33: 33.0 fs
C       -1.771737       -0.076551       -0.043377
H       -2.525111        0.480658        0.643225
H       -2.132768       -0.032929       -1.091788
H       -1.703224       -1.120511        0.178547
C        1.786586        0.035236       -0.057098
H        2.361205       -0.530658        0.724873
H        2.299871       -0.273367       -1.010406
H        1.998782        1.088650        0.087071
N        0.430777       -0.425607        0.029587
N       -0.465101        0.488904        0.090115
10
  Step 34: 34.0 fs
C       -1.773151       -0.079191       -0.053207
H       -2.538036        0.487920        0.692900
H       -2.140157       -0.073049       -1.079333
H       -1.705462       -1.044485        0.186532
C        1.791934        0.040530       -0.064048
H        2.353301       -0.530338        0.722739
H        2.229579       -0.303561       -0.966931
H        1.943566        1.083633        0.137433
N        0.431197       -0.428364        0.029145
N       -0.457669        0.488791        0.093290
10
  Step 35: 35.0 fs
C       -1.776649       -0.078801       -0.061856
H       -2.535479        0.484028        0.724526
H       -2.147680       -0.105566       -1.070153
H       -1.708471       -1.012116        0.207863
C        1.797899        0.045319       -0.068895
H        2.343221       -0.527120        0.717957
H        2.161936       -0.335218       -0.937452
H        1.887469        1.088240        0.185607
N        0.429327       -0.430346        0.028357
N       -0.447711        0.488339        0.095927
10
  Step 36: 36.0 fs
C       -1.782042       -0.074294       -0.068863
H       -2.516846        0.469232        0.734399
H       -2.157028       -0.129335       -1.068936
H       -1.710686       -1.036715        0.246977
C        1.803300        0.050067       -0.070051
H        2.332799       -0.521835        0.711871
H        2.106897       -0.371651       -0.939517
H        1.833437        1.100991        0.227932
N        0.425348       -0.431677        0.027263
N       -0.435650        0.487608        0.097942
10
  Step 37: 37.0 fs
C       -1.788805       -0.067610       -0.073347
H       -2.484291        0.445986        0.721985
H       -2.168608       -0.144450       -1.077182
H       -1.713041       -1.095717        0.296666
C        1.807575        0.055106       -0.067281
H        2.324464       -0.515934        0.706330
H        2.066791       -0.411148       -0.975120
H        1.784053        1.117388        0.260466
N        0.419596       -0.432559        0.025933
N       -0.422069        0.486687        0.099271
10
  Step 38: 38.0 fs
C       -1.796245       -0.061387       -0.074749
H       -2.442956        0.418864        0.690630
H       -2.181191       -0.151634       -1.092192
H       -1.717138       -1.159052        0.345178
C        1.810634        0.060185       -0.061876
H        2.320782       -0.511127        0.703186
H        2.038143       -0.444806       -1.028884
H        1.741678        1.132696        0.280070
N        0.412573       -0.433268        0.024431
N       -0.407693        0.485712        0.099873
10
  Step 39: 39.0 fs
C       -1.803456       -0.057522       -0.073563
H       -2.402417        0.395462        0.649736
H       -2.192461       -0.151684       -1.108418
H       -1.723818       -1.208113        0.384024
C        1.812411        0.064861       -0.055407
H        2.323738       -0.508728        0.703531
H        2.017597       -0.463245       -1.082522
H        1.708311        1.143455        0.285037
N        0.404924       -0.434170        0.022801
N       -0.393349        0.484893        0.099735
10
  Step 40: 40.0 fs
C       -1.809186       -0.057405       -0.071252
H       -2.377233        0.387011        0.615813
H       -2.200101       -0.145343       -1.120187
H       -1.733307       -1.234115        0.408680
C        1.812820        0.068772       -0.048964
H        2.334015       -0.508923        0.707022
H        2.003554       -0.460970       -1.123290
H        1.685459        1.147934        0.275132
N        0.397367       -0.435692        0.021067
N       -0.379898        0.484512        0.098877
10
  Step 41: 41.0 fs
C       -1.812287       -0.061954       -0.069332
H       -2.380743        0.404181        0.604938
H       -2.202539       -0.133418       -1.123717
H       -1.745512       -1.233575        0.417202
C        1.811869        0.071587       -0.043146
H        2.350741       -0.510496        0.711805
H        1.995498       -0.436180       -1.144174
H        1.673961        1.146270        0.251475
N        0.390589       -0.438263        0.019252
N       -0.368140        0.484884        0.097346
10
  Step 42: 42.0 fs
C       -1.812794       -0.070936       -0.067856
H       -2.412046        0.446773        0.616634
H       -2.199257       -0.116883       -1.118091
H       -1.760098       -1.206134        0.409287
C        1.809710        0.072953       -0.038234
H        2.371843       -0.511255        0.715192
H        1.993389       -0.389683       -1.142322
H        1.673848        1.140448        0.216365
N        0.385155       -0.442222        0.017395
N       -0.358718        0.486266        0.095200
10
  Step 43: 43.0 fs
C       -1.811866       -0.082840       -0.065529
H       -2.456551        0.502661        0.635218
H       -2.190781       -0.096799       -1.105217
H       -1.776456       -1.154921        0.386411
C        1.806593        0.072553       -0.034306
H        2.394782       -0.508878        0.714673
H        1.997472       -0.324468       -1.118532
H        1.684290        1.133983        0.173080
N        0.381437       -0.447730        0.015556
N       -0.352051        0.488763        0.092502
10
  Step 44: 44.0 fs
C       -1.810662       -0.095507       -0.061270
H       -2.499322        0.558129        0.646113
H       -2.178457       -0.074107       -1.089014
H       -1.793691       -1.089524        0.353172
C        1.802773        0.070261       -0.031187
H        2.417253       -0.501670        0.708695
H        2.008376       -0.245928       -1.078165
H        1.703680        1.131002        0.125592
N        0.379582       -0.454703        0.013812
N       -0.348324        0.492266        0.089308
10
  Step 45: 45.0 fs
C       -1.809844       -0.106154       -0.055003
H       -2.530971        0.603479        0.641986
H       -2.164001       -0.049509       -1.074179
H       -1.810789       -1.031247        0.319474
C        1.798397        0.066346       -0.028261
H        2.437657       -0.489012        0.697028
H        2.027583       -0.162105       -1.033293
H        1.729845        1.134560        0.078274
N        0.379537       -0.462812        0.012239
N       -0.347499        0.496423        0.085673
10
  Step 46: 46.0 fs
C       -1.809655       -0.111384       -0.047567
H       -2.546794        0.632972        0.620976
H       -2.148860       -0.023636       -1.064657
H       -1.827360       -1.012669        0.299697
C        1.793426        0.061511       -0.024488
H        2.455394       -0.471544        0.680840
H        2.057741       -0.082233       -1.002118
H        1.760213        1.144970        0.035672
N        0.381102       -0.471525        0.010895
N       -0.349360        0.500683        0.081648
10
  Step 47: 47.0 fs
C       -1.810079       -0.109260       -0.039668
H       -2.545140        0.643890        0.584440
H       -2.133747        0.002612       -1.062429
H       -1.844068       -1.051947        0.301376
C        1.787768        0.056611       -0.019182
H        2.470968       -0.451132        0.662634
H        2.100977       -0.013047       -0.999334
H        1.791855        1.159661        0.002191
N        0.383997       -0.480213        0.009808
N       -0.353559        0.504395        0.077287
10
  Step 48: 48.0 fs
C       -1.811046       -0.101412       -0.031069
H       -2.526945        0.636417        0.536135
H       -2.118538        0.027715       -1.067185
H       -1.861050       -1.127542        0.316145
C        1.781661        0.052397       -0.013076
H        2.485767       -0.430536        0.645795
H        2.154826        0.042698       -1.022706
H        1.821654        1.174501       -0.018531
N        0.387893       -0.488239        0.008989
N       -0.359664        0.506915        0.072645
10
  Step 49: 49.0 fs
C       -1.812365       -0.090856       -0.021629
H       -2.496616        0.614545        0.482635
H       -2.102469        0.049560       -1.076533
H       -1.877361       -1.205184        0.331844
C        1.775759        0.049566       -0.007863
H        2.501306       -0.412674        0.633551
H        2.211904        0.083613       -1.056989
H        1.846666        1.185269       -0.024262
N        0.392433       -0.495042        0.008443
N       -0.367211        0.507682        0.067788
10
  Step 50: 50.0 fs
C       -1.813401       -0.080135       -0.012056
H       -2.464213        0.588192        0.434364
H       -2.084599        0.065873       -1.086966
H       -1.892010       -1.262475        0.341430
C        1.770851        0.048670       -0.004939
H        2.517929       -0.399632        0.627590
H        2.264179        0.108555       -1.087513
H        1.864449        1.188778       -0.014353
N        0.397260       -0.500197        0.008170
N       -0.375750        0.506275        0.062799
10
  Step 51: 51.0 fs
C       -1.812935       -0.071439       -0.003669
H       -2.446091        0.573821        0.404875
H       -2.064396        0.074864       -1.095150
H       -1.904348       -1.288720        0.342233
C        1.767678        0.049964       -0.004934
H        2.534004       -0.392155        0.627534
H        2.305718        0.117187       -1.105394
H        1.873272        1.183613        0.010479
N        0.402038       -0.503426        0.008159
N       -0.384864        0.502430        0.057776
10
  Step 52: 52.0 fs
C       -1.809901       -0.066305        0.002406
H       -2.456185        0.585540        0.403971
H       -2.042078        0.075669       -1.098601
H       -1.913918       -1.280126        0.333902
C        1.766852        0.053349       -0.007875
H        2.546347       -0.389893        0.631530
H        2.332824        0.110229       -1.106491
H        1.872263        1.170626        0.048522
N        0.406477       -0.504598        0.008389
N       -0.394154        0.496053        0.052827
10
  Step 53: 53.0 fs
C       -1.804698       -0.064568        0.006132
H       -2.490894        0.619979        0.428574
H       -2.018704        0.068538       -1.096118
H       -1.920314       -1.237405        0.317401
C        1.768773        0.058432       -0.013452
H        2.551565       -0.392052        0.637383
H        2.343525        0.089390       -1.089731
H        1.861490        1.152984        0.097471
N        0.410350       -0.503723        0.008829
N       -0.403229        0.487217        0.048059
10
  Step 54: 54.0 fs
C       -1.798857       -0.064680        0.008265
H       -2.532984        0.660635        0.466445
H       -1.996082        0.054805       -1.088050
H       -1.923365       -1.166224        0.295100
C        1.773534        0.064622       -0.021155
H        2.547211       -0.397909        0.643433
H        2.337491        0.057276       -1.056644
H        1.841949        1.135495        0.154771
N        0.413506       -0.500943        0.009439
N       -0.411699        0.476159        0.043580
10
  Step 55: 55.0 fs
C       -1.793693       -0.064693        0.009465
H       -2.566898        0.693114        0.505980
H       -1.976510        0.036684       -1.076441
H       -1.923798       -1.080515        0.271736
C        1.780828        0.071303       -0.030230
H        2.532356       -0.407047        0.648966
H        2.316699        0.017297       -1.012345
H        1.815393        1.122844        0.217679
N        0.415871       -0.496521        0.010164
N       -0.419202        0.463265        0.039490
10
  Step 56: 56.0 fs
C       -1.789808       -0.062179        0.009906
H       -2.583752        0.709729        0.539492
H       -1.962364        0.016861       -1.064815
H       -1.924309       -1.007315        0.255638
C        1.789860        0.078098       -0.039459
H        2.507639       -0.419398        0.654214
H        2.286755       -0.026833       -0.967671
H        1.784149        1.117024        0.282797
N        0.417453       -0.490835        0.010942
N       -0.425442        0.449046        0.035872
10
  Step 57: 57.0 fs
C       -1.787250       -0.054489        0.009407
H       -2.579740        0.707822        0.562516
H       -1.955668       -0.002132       -1.057307
H       -1.929420       -0.981217        0.257075