10
  Step 0: 0.0 fs
C       -1.803705       -0.067740        0.000060
H       -2.311492        0.330684        0.889259
H       -2.311352        0.329955       -0.889483
H       -1.816421       -1.165806        0.000681
C        1.803670        0.067714        0.000024
H        2.310888       -0.329696        0.890037
H        2.312176       -0.330867       -0.888643
H        1.816220        1.165779       -0.000413
N        0.410955       -0.460075       -0.000159
N       -0.410927        0.460089       -0.000120
10
  Step 1: 1.0 fs
C       -1.797013       -0.075544        0.001937
H       -2.273404        0.299864        0.812386
H       -2.273835        0.352046       -0.874349
H       -1.842711       -1.136803        0.054289
C        1.807622        0.077365       -0.009084
H        2.311506       -0.405137        0.933881
H        2.332321       -0.360755       -0.871215
H        1.781978        1.130560        0.018457
N        0.398210       -0.451299        0.000162
N       -0.409882        0.458388        0.000573
10
  Step 2: 2.0 fs
C       -1.789125       -0.083267        0.002022
H       -2.251607        0.284143        0.764635
H       -2.239142        0.372853       -0.863980
H       -1.867557       -1.120203        0.104525
C        1.811810        0.084687       -0.016846
H        2.305001       -0.470394        0.963758
H        2.351382       -0.388134       -0.854401
H        1.750745        1.110663        0.037362
N        0.386370       -0.443222        0.000369
N       -0.409322        0.457193        0.001299
10
  Step 3: 3.0 fs
C       -1.779101       -0.091000       -0.001144
H       -2.259545        0.296614        0.768669
H       -2.209517        0.390899       -0.861808
H       -1.890004       -1.124227        0.149027
C        1.816200        0.088045       -0.022628
H        2.288800       -0.518791        0.973423
H        2.368295       -0.410441       -0.838622
H        1.724586        1.116790        0.056688
N        0.376310       -0.436545        0.000364
N       -0.409728        0.457006        0.002100
10
  Step 4: 4.0 fs
C       -1.767773       -0.098223       -0.006403
H       -2.290799        0.333497        0.813136
H       -2.186332        0.404366       -0.868924
H       -1.909056       -1.147444        0.185960
C        1.820567        0.087247       -0.026113
H        2.262873       -0.546672        0.961431
H        2.382323       -0.425624       -0.824722
H        1.705467        1.145955        0.076170
N        0.368769       -0.431844        0.000054
N       -0.411451        0.458228        0.003017
10
  Step 5: 5.0 fs
C       -1.757034       -0.104228       -0.011317
H       -2.327871        0.380264        0.868960
H       -2.170035        0.411080       -0.883736
H       -1.923218       -1.180069        0.213386
C        1.824525        0.083257       -0.027091
H        2.228695       -0.552683        0.929385
H        2.393232       -0.432517       -0.814208
H        1.695729        1.184319        0.094399
N        0.364247       -0.429445       -0.000647
N       -0.414631        0.461061        0.004079
10
  Step 6: 6.0 fs
C       -1.748411       -0.108724       -0.014308
H       -2.358137        0.425066        0.915205
H       -2.160294        0.408791       -0.902732
H       -1.930805       -1.210465        0.229582
C        1.827607        0.077361       -0.025555
H        2.189177       -0.537953        0.882051
H        2.401202       -0.430807       -0.809000
H        1.697228        1.217176        0.109580
N        0.362925       -0.429344       -0.001819
N       -0.419153        0.465445        0.005309
10
  Step 7: 7.0 fs
C       -1.742806       -0.111683       -0.014785
H       -2.375654        0.461063        0.941572
H       -2.156335        0.395735       -0.921958
H       -1.930557       -1.229880        0.233706
C        1.829307        0.070812       -0.021978
H        2.149312       -0.507474        0.829196
H        2.406535       -0.420755       -0.810813
H        1.710605        1.234409        0.120352
N        0.364644       -0.431215       -0.003532
N       -0.424651        0.471054        0.006715
10
  Step 8: 8.0 fs
C       -1.740666       -0.113116       -0.012697
H       -2.378379        0.484587        0.943917
H       -2.157254        0.371096       -0.938153
H       -1.921936       -1.233749        0.226051
C        1.829046        0.064946       -0.017641
H        2.117025       -0.472263        0.788279
H        2.409308       -0.402893       -0.820322
H        1.735236        1.231117        0.126042
N        0.368952       -0.434495       -0.005840
N       -0.430574        0.477364        0.008284
10
  Step 9: 9.0 fs
C       -1.742118       -0.112958       -0.008222
H       -2.366311        0.493694        0.921292
H       -2.162237        0.335261       -0.949369
H       -1.905187       -1.221677        0.208061
C        1.826268        0.061117       -0.014486
H        2.101906       -0.447858        0.782016
H        2.409172       -0.377981       -0.836516
H        1.769421        1.207027        0.126584
N        0.375211       -0.438501       -0.008770
N       -0.436285        0.483755        0.009983
10
  Step 10: 10.0 fs
C       -1.746991       -0.111040       -0.001690
H       -2.341100        0.487848        0.875254
H       -2.170644        0.289807       -0.955213
H       -1.881296       -1.197434        0.182295
C        1.820920        0.059714       -0.013648
H        2.108957       -0.442689        0.820919
H        2.405515       -0.347257       -0.856811
H        1.810551        1.166784        0.122488
N        0.382712       -0.442544       -0.012317
N       -0.441158        0.489618        0.011759
10
  Step 11: 11.0 fs
C       -1.754777       -0.107140        0.006331
H       -2.306780        0.468676        0.810933
H       -2.182067        0.237353       -0.956852
H       -1.851828       -1.168926        0.152315
C        1.813772        0.059397       -0.014205
H        2.133746       -0.449592        0.889095
H        2.397881       -0.312742       -0.877981
H        1.855478        1.120824        0.115047
N        0.390768       -0.446015       -0.016443
N       -0.444653        0.494443        0.013545
10
  Step 12: 12.0 fs
C       -1.764473       -0.101271        0.014758
H       -2.272047        0.442534        0.740361
H       -2.196228        0.181189       -0.956608
H       -1.818534       -1.146902        0.122236
C        1.805884        0.058100       -0.014490
H        2.167662       -0.456867        0.960715
H        2.386270       -0.277265       -0.897174
H        1.901335        1.084420        0.106521
N        0.398779       -0.448424       -0.021079
N       -0.446376        0.497863        0.015271
10
  Step 13: 13.0 fs
C       -1.774409       -0.094332        0.021647
H       -2.253023        0.424041        0.686287
H       -2.212833        0.124762       -0.957174
H       -1.782821       -1.140368        0.095938
C        1.798085        0.054327       -0.013411
H        2.203574       -0.457591        1.017151
H        2.371208       -0.244173       -0.912583
H        1.946160        1.071430        0.099470
N        0.406235       -0.449427       -0.026129
N       -0.446104        0.499681        0.016872
10
  Step 14: 14.0 fs
C       -1.782633       -0.088180        0.024722
H       -2.268827        0.431992        0.675196
H       -2.231370        0.071215       -0.960476
H       -1.745799       -1.151017        0.076519
C        1.791013        0.047924       -0.010437
H        2.236705       -0.449516        1.048561
H        2.353654       -0.216798       -0.923611
H        1.987918        1.084544        0.095336
N        0.412716       -0.448836       -0.031480
N       -0.443795        0.499858        0.018304
10
  Step 15: 15.0 fs
C       -1.788613       -0.083788        0.023686
H       -2.321091        0.467343        0.709037
H       -2.251056        0.023164       -0.967046
H       -1.708941       -1.172880        0.066297
C        1.785322        0.039990       -0.005320
H        2.263927       -0.432948        1.050780
H        2.334760       -0.197827       -0.930512
H        2.023083        1.113861        0.094012
N        0.417888       -0.446621       -0.037009
N       -0.439569        0.498499        0.019540
10
  Step 16: 16.0 fs
C       -1.793547       -0.080600        0.020422
H       -2.390422        0.510327        0.762779
H       -2.270781       -0.017386       -0.975798
H       -1.674301       -1.196778        0.066734
C        1.781648        0.031994        0.001962
H        2.283292       -0.409603        1.023402
H        2.315638       -0.188845       -0.933852
H        2.047510        1.145687        0.094649
N        0.421523       -0.442902       -0.042590
N       -0.433685        0.495827        0.020573
10
  Step 17: 17.0 fs
C       -1.798628       -0.078102        0.016635
H       -2.457497        0.543367        0.813103
H       -2.289182       -0.049016       -0.984436
H       -1.644211       -1.214447        0.078302
C        1.780423        0.025158        0.011113
H        2.294248       -0.382471        0.969769
H        2.297214       -0.190243       -0.934183
H        2.058125        1.169596        0.096367
N        0.423516       -0.437926       -0.048097
N       -0.426514        0.492167        0.021412
10
  Step 18: 18.0 fs
C       -1.804426       -0.076255        0.013179
H       -2.510884        0.558025        0.847400
H       -2.304864       -0.070915       -0.990439
H       -1.620892       -1.220252        0.100547
C        1.781678        0.020399        0.021342
H        2.298913       -0.356504        0.898827
H        2.280161       -0.201381       -0.931978
H        2.053550        1.179790        0.098434
N        0.423917       -0.432058       -0.053410
N       -0.418506        0.487933        0.022080
10
  Step 19: 19.0 fs
C       -1.811091       -0.075184        0.010436
H       -2.544823        0.551692        0.860165
H       -2.316694       -0.082897       -0.992023
H       -1.606158       -1.211566        0.132258
C        1.784826        0.018530        0.031124
H        2.304393       -0.339858        0.828032
H        2.264876       -0.220823       -0.927749
H        2.033981        1.174207        0.100317
N        0.422942       -0.425773       -0.058412
N       -0.410169        0.483629        0.022618
10
  Step 20: 20.0 fs
C       -1.818568       -0.074940        0.008627
H       -2.556730        0.524766        0.849670
H       -2.324061       -0.085440       -0.988715
H       -1.601192       -1.188695        0.171717
C        1.788633        0.020293        0.038364
H        2.323235       -0.343417        0.781441
H        2.251543       -0.246558       -0.922181
H        2.000992        1.153876        0.101754
N        0.420969       -0.419641       -0.062999
N       -0.402043        0.479823        0.023079
10
  Step 21: 21.0 fs
C       -1.826672       -0.075422        0.007898
H       -2.546346        0.479775        0.816864
H       -2.326966       -0.079689       -0.981547
H       -1.606318       -1.154849        0.216942
C        1.792063        0.025767        0.041788
H        2.363724       -0.373824        0.773293
H        2.240281       -0.276226       -0.916206
H        1.957490        1.123309        0.102865
N        0.418470       -0.414291       -0.067093
N       -0.394679        0.477107        0.023529
10
  Step 22: 22.0 fs
C       -1.835043       -0.076414        0.008225
H       -2.516514        0.422035        0.766148
H       -2.325961       -0.067416       -0.972908
H       -1.620713       -1.116291        0.265923
C        1.795369        0.033557        0.042159
H        2.417491       -0.424905        0.793468
H        2.231265       -0.307292       -0.910714
H        1.907678        1.091665        0.104257
N        0.415914       -0.410339       -0.070656
N       -0.388601        0.476018        0.024050
10
  Step 23: 23.0 fs
C       -1.842906       -0.077832        0.009078
H       -2.476113        0.361803        0.708520
H       -2.321931       -0.050898       -0.966006
H       -1.642318       -1.081563        0.316796
C        1.799441        0.041252        0.041008
H        2.467932       -0.482794        0.822001
H        2.224719       -0.337073       -0.906024
H        1.856442        1.072386        0.107039
N        0.413692       -0.408299       -0.073676
N       -0.384242        0.476943        0.024723
10
  Step 24: 24.0 fs
C       -1.848731       -0.080095        0.009018
H       -2.443898        0.316363        0.665406
H       -2.315777       -0.032640       -0.963873
H       -1.668302       -1.059429        0.367791
C        1.804846        0.046712        0.039341
H        2.502884       -0.535293        0.844901
H        2.220897       -0.362811       -0.901878
H        1.807931        1.077196        0.112372
N        0.412049       -0.408478       -0.076148
N       -0.381878        0.480030        0.025623
10
  Step 25: 25.0 fs
C       -1.850616       -0.084068        0.006196
H       -2.443117        0.304983        0.662370
H       -2.308158       -0.014983       -0.968287
H       -1.696182       -1.054912        0.416602
C        1.811718        0.049119        0.037642
H        2.516503       -0.574608        0.855508
H        2.220119       -0.381971       -0.898027
H        1.764909        1.106428        0.120575
N        0.411062       -0.410912       -0.078056
N       -0.381589        0.485135        0.026798
10
  Step 26: 26.0 fs
C       -1.848384       -0.089808        0.000733
H       -2.476147        0.331059        0.701035
H       -2.299482        0.000179       -0.979249
H       -1.724686       -1.066813        0.459826
C        1.819843        0.049005        0.036198
H        2.507075       -0.596460        0.851590
H        2.222791       -0.392633       -0.894779
H        1.729815        1.147969        0.130749
N        0.410647       -0.415346       -0.079368
N       -0.383233        0.491825        0.028240
10
  Step 27: 27.0 fs
C       -1.843864       -0.096325       -0.005029
H       -2.521512        0.379973        0.755906
H       -2.289857        0.011568       -0.994901
H       -1.753553       -1.088686        0.493206
C        1.828749        0.047396        0.035200
H        2.475575       -0.599177        0.833679
H        2.229323       -0.393690       -0.893097
H        1.705180        1.186581        0.141435
N        0.410614       -0.421279       -0.080051
N       -0.386484        0.499448        0.029889
10
  Step 28: 28.0 fs
C       -1.838765       -0.102731       -0.009067
H       -2.559677        0.436176        0.803512
H       -2.279051        0.018419       -1.011851
H       -1.782680       -1.112399        0.512830
C        1.837789        0.045220        0.034659
H        2.425500       -0.583660        0.804955
H        2.240005       -0.384789       -0.894279
H        1.693022        1.211001        0.151350
N        0.410706       -0.428059       -0.080078
N       -0.390915        0.507237        0.031660
10
  Step 29: 29.0 fs
C       -1.834046       -0.108520       -0.010461
H       -2.580841        0.489567        0.831597
H       -2.266663        0.020351       -1.026254
H       -1.811589       -1.131169        0.516281
C        1.846134        0.043301        0.034216
H        2.363802       -0.554597        0.772650
H        2.254877       -0.366153       -0.899352
H        1.694385        1.215211        0.159684
N        0.410654       -0.434998       -0.079450
N       -0.396073        0.514415        0.033463
10
  Step 30: 30.0 fs
C       -1.830185       -0.113340       -0.009013
H       -2.581425        0.534101        0.835274
H       -2.252416        0.017322       -1.035022
H       -1.839369       -1.140997        0.503143
C        1.852719        0.042598        0.032891
H        2.301991       -0.522475        0.750266
H        2.273653       -0.338459       -0.908350
H        1.709246        1.197716        0.166122
N        0.410209       -0.441460       -0.078201
N       -0.401535        0.520284        0.035216
10
  Step 31: 31.0 fs
C       -1.827424       -0.116811       -0.004887
H       -2.560884        0.565971        0.813385
H       -2.236353        0.009673       -1.036537
H       -1.864863       -1.141069        0.475067
C        1.856457        0.044107        0.029188
H        2.253703       -0.502152        0.755868
H        2.295741       -0.302916       -0.919878
H        1.736424        1.161456        0.170837
N        0.409163       -0.446909       -0.076410
N       -0.406928        0.524264        0.036855
10
  Step 32: 32.0 fs
C       -1.825837       -0.118463        0.001547
H       -2.520573        0.582917        0.767136
H       -2.218896       -0.001827       -1.031010
H       -1.886953       -1.133880        0.435686
C        1.857006        0.047856        0.022261
H        2.225627       -0.501957        0.798267
H        2.320339       -0.261471       -0.931432
H        1.773430        1.115037        0.174627
N        0.407377       -0.450927       -0.074190
N       -0.411952        0.525921        0.038330
10
  Step 33: 33.0 fs
C       -1.825289       -0.117788        0.009727
H       -2.464069        0.584614        0.700390
H       -2.200788       -0.016010       -1.020535
H       -1.904832       -1.124970        0.390227
C        1.855089        0.052082        0.012986
H        2.212921       -0.514981        0.864611
H        2.346563       -0.216865       -0.940435
H        1.816734        1.073747        0.179322
N        0.404806       -0.453219       -0.071678
N       -0.416379        0.524971        0.039612
10
  Step 34: 34.0 fs
C       -1.825282       -0.114537        0.018786
H       -2.398972        0.574852        0.621561
H       -2.182915       -0.031421       -1.008757
H       -1.918232       -1.121536        0.344620
C        1.851666        0.054369        0.002991
H        2.207545       -0.528925        0.932619
H        2.373497       -0.172389       -0.945109
H        1.862915        1.055727        0.187825
N        0.401524       -0.453616       -0.069011
N       -0.420050        0.521286        0.040685
10
  Step 35: 35.0 fs
C       -1.824712       -0.109392        0.027353
H       -2.339995        0.566161        0.546614
H       -2.166021       -0.046571       -0.999993
H       -1.927404       -1.128846        0.303923
C        1.847343        0.053471       -0.006410
H        2.204366       -0.535758        0.985394
H        2.400221       -0.131466       -0.944849
H        1.909664        1.069617        0.202225
N        0.397713       -0.452089       -0.066320
N       -0.422882        0.514910        0.041548
10
  Step 36: 36.0 fs
C       -1.821928       -0.104424        0.033617
H       -2.308626        0.581738        0.497690
H       -2.150408       -0.060189       -0.997777
H       -1.932838       -1.146608        0.271398
C        1.842520        0.050050       -0.014216
H        2.201018       -0.532329        1.013733
H        2.425755       -0.097154       -0.939999
H        1.954606        1.106229        0.221329
N        0.393633       -0.448776       -0.063727
N       -0.424875        0.506056        0.042215
10
  Step 37: 37.0 fs
C       -1.816080       -0.101442        0.036612
H       -2.317315        0.636269        0.486234
H       -2.135857       -0.071300       -1.003581
H       -1.934981       -1.169360        0.248734
C        1.837609        0.045691       -0.019642
H        2.196608       -0.518347        1.013753
H        2.448984       -0.071736       -0.931356
H        1.994251        1.147994        0.241499
N        0.389608       -0.443988       -0.061350
N       -0.426127        0.495119        0.042720
10
  Step 38: 38.0 fs
C       -1.808343       -0.099742        0.037150
H       -2.354632        0.712551        0.500603
H       -2.121824       -0.079103       -1.016309
H       -1.934121       -1.190098        0.236667
C        1.833010        0.041799       -0.022238
H        2.191111       -0.495306        0.985442
H        2.468625       -0.056559       -0.919797
H        2.024991        1.180756        0.259106
N        0.386026       -0.438210       -0.059299
N       -0.426849        0.482676        0.043121
10
  Step 39: 39.0 fs
C       -1.800524       -0.097704        0.036357
H       -2.401365        0.783063        0.523568
H       -2.107707       -0.082887       -1.032642
H       -1.930435       -1.203015        0.235245
C        1.828991        0.039352       -0.022007
H        2.185494       -0.466539        0.932962
H        2.483336       -0.052109       -0.906272
H        2.044136        1.196772        0.271618
N        0.383338       -0.432077       -0.057674
N       -0.427366        0.469477        0.043506
10
  Step 40: 40.0 fs
C       -1.793882       -0.094437        0.034778
H       -2.444269        0.830662        0.544269
H       -2.093100       -0.082190       -1.048409
H       -1.924168       -1.204354        0.243953
C        1.825579        0.039115       -0.019553
H        2.182476       -0.438204        0.866536
H        2.491926       -0.058158       -0.892017
H        2.050153        1.193277        0.277575
N        0.382029       -0.426322       -0.056559
N       -0.428073        0.456394        0.043985
10
  Step 41: 41.0 fs
C       -1.789119       -0.089689        0.032568
H       -2.476078        0.848041        0.557326
H       -2.077944       -0.077002       -1.059976
H       -1.915800       -1.192660        0.261881
C        1.822435        0.041864       -0.016233
H        2.187703       -0.420539        0.804578
H        2.493555       -0.073879       -0.878763
H        2.042601        1.171129        0.276449
N        0.382563       -0.421697       -0.056011
N       -0.429347        0.444333        0.044674
10
  Step 42: 42.0 fs
C       -1.786587       -0.083443        0.029777
H       -2.493013        0.833378        0.560303
H       -2.062621       -0.067829       -1.065174
H       -1.906103       -1.168850        0.287888
C        1.818914        0.048235       -0.013755
H        2.208740       -0.425698        0.768792
H        2.487869       -0.097943       -0.868726
H        2.022159        1.134554        0.268724
N        0.385306       -0.418857       -0.056055
N       -0.431456        0.434099        0.045683
10
  Step 43: 43.0 fs
C       -1.786397       -0.075739        0.026486
H       -2.493487        0.788165        0.552511
H       -2.047954       -0.055678       -1.063727
H       -1.896076       -1.136049        0.320700
C        1.814670        0.057810       -0.012786
H        2.247835       -0.458030        0.766859
H        2.474954       -0.128617       -0.864181
H        1.990885        1.092323        0.256301
N        0.390407       -0.418258       -0.056681
N       -0.434458        0.426285        0.047100
10
  Step 44: 44.0 fs
C       -1.788407       -0.066730        0.022803
H       -2.478302        0.717351        0.535037
H       -2.035137       -0.041996       -1.057304
H       -1.886749       -1.099099        0.358946
C        1.810114        0.068477       -0.012472
H        2.296720       -0.507870        0.785455
H        2.455062       -0.163779       -0.866537
H        1.952450        1.059112        0.242953
N        0.397721       -0.420067       -0.057847
N       -0.438152        0.421194        0.048988
10
  Step 45: 45.0 fs
C       -1.792071       -0.056943        0.018726
H       -2.452685        0.631572        0.512228
H       -2.025594       -0.028554       -1.049226
H       -1.878891       -1.063627        0.401015
C        1.805910        0.077372       -0.011832
H        2.343700       -0.560212        0.806780
H        2.428328       -0.200821       -0.875504
H        1.911385        1.052727        0.233576
N        0.406797       -0.424158       -0.059477
N       -0.442082        0.418822        0.051381
10
  Step 46: 46.0 fs
C       -1.796150       -0.047698        0.013870
H       -2.430070        0.550321        0.494451
H       -2.020762       -0.017233       -1.043626
H       -1.872682       -1.034437        0.444652
C        1.802583        0.082609       -0.010392
H        2.380440       -0.603324        0.819707
H        2.394923       -0.236648       -0.889299
H        1.870925        1.082051        0.230798
N        0.416937       -0.430155       -0.061457
N       -0.445624        0.418912        0.054286
10
  Step 47: 47.0 fs
C       -1.798715       -0.041000        0.007372
H       -2.432092        0.499277        0.498130
H       -2.021845       -0.009697       -1.044032
H       -1.867677       -1.014206        0.486659
C        1.800487        0.084273       -0.007843
H        2.402577       -0.630136        0.819365
H        2.355496       -0.268027       -0.905648
H        1.832372        1.136819        0.232259
N        0.427291       -0.437524       -0.063636
N       -0.448100        0.421036        0.057686
10
  Step 48: 48.0 fs
C       -1.798733       -0.037938       -0.001062
H       -2.470082        0.490879        0.531797
H       -2.029570       -0.007099       -1.051991
H       -1.863146       -1.003185        0.523172
C        1.799749        0.083592       -0.003968
H        2.408510       -0.637096        0.804557
H        2.311399       -0.292057       -0.922627
H        1.796764        1.196641        0.233284
N        0.437011       -0.445666       -0.065844
N       -0.448898        0.424688        0.061537
10
  Step 49: 49.0 fs
C       -1.797477       -0.037674       -0.010108
H       -2.528323        0.512798        0.582506
H       -2.043972       -0.009966       -1.066400
H       -1.858551       -0.999609        0.550369
C        1.800259        0.081752        0.001218
H        2.398675       -0.623265        0.776415
H        2.264624       -0.306512       -0.939080
H        1.765588        1.244321        0.230333
N        0.445349       -0.453989       -0.067902
N       -0.447531        0.429347        0.065756
10
  Step 50: 50.0 fs
C       -1.796811       -0.038960       -0.018152
H       -2.583959        0.547009        0.631003
H       -2.064224       -0.018220       -1.083600
H       -1.853845       -1.000515        0.565182
C        1.801692        0.079612        0.007390
H        2.375805       -0.590482        0.738565
H        2.217586       -0.309972       -0.954596
H        1.740329        1.269757        0.221809
N        0.451705       -0.461961       -0.069633
N       -0.443712        0.434511        0.070225
10
  Step 51: 51.0 fs
C       -1.797818       -0.041034       -0.024345
H       -2.622886        0.581752        0.664979
H       -2.088695       -0.031299       -1.098627
H       -1.849395       -1.003003        0.565847
C        1.803442        0.077951        0.013818
H        2.346200       -0.544774        0.698558
H        2.172826       -0.301828       -0.969191
H        1.722152        1.268649        0.207573
N        0.455645       -0.469152       -0.070870
N       -0.437385        0.439727        0.074804
10
  Step 52: 52.0 fs
C       -1.800881       -0.043455       -0.028479
H       -2.638851        0.610578        0.678770
H       -2.115308       -0.048273       -1.106972
H       -1.845755       -1.005298        0.552240
C        1.804493        0.077745        0.019211
H        2.321354       -0.498191        0.669733
H        2.132807       -0.282316       -0.982935
H        1.711757        1.241232        0.188495
N        0.456901       -0.475253       -0.071466
N       -0.428697        0.444607        0.079345
10
  Step 53: 53.0 fs
C       -1.805991       -0.045851       -0.030653
H       -2.629884        0.629876        0.670524
H       -2.141951       -0.067947       -1.105868
H       -1.843447       -1.007344        0.525985
C        1.803602        0.079941        0.021933
H        2.315874       -0.466268        0.668588
H        2.099830       -0.252560       -0.995665
H        1.709144        1.192621        0.166313
N        0.455371       -0.480082       -0.071307
N       -0.417960        0.448843        0.083715
10
  Step 54: 54.0 fs
C       -1.812916       -0.047825       -0.031095
H       -2.596531        0.637689        0.640727
H       -2.166821       -0.088957       -1.094893
H       -1.842832       -1.010822        0.490273
C        1.800238        0.084255        0.021136
H        2.336573       -0.455963        0.701343
H        2.075985       -0.214639       -1.007074
H        1.713224        1.134923        0.143699
N        0.451133       -0.483581       -0.070315
N       -0.405626        0.452218        0.087800
10
  Step 55: 55.0 fs
C       -1.821204       -0.049018       -0.030107
H       -2.541937        0.633937        0.592296
H       -2.188636       -0.109875       -1.076148
H       -1.844045       -1.018589        0.449389
C        1.795245        0.088409        0.017558
H        2.374875       -0.458704        0.754853
H        2.063035       -0.171524       -1.017113
H        1.721584        1.089154        0.124386
N        0.444446       -0.485794       -0.068465
N       -0.392256        0.454617        0.091510
10
  Step 56: 56.0 fs
C       -1.830046       -0.049377       -0.028148
H       -2.473543        0.622220        0.532121
H       -2.206743       -0.129343       -1.054035
H       -1.847042       -1.033232        0.407803
C        1.789967        0.089532        0.012541
H        2.416507       -0.461733        0.809258
H        2.062172       -0.126695       -1.026162
H        1.731309        1.079239        0.112434
N        0.435757       -0.486855       -0.065783
N       -0.378503        0.456028        0.094777
10
  Step 57: 57.0 fs
C       -1.838052       -0.049642       -0.026033
H       -2.405904        0.613593        0.473607
H       -2.221060       -0.146198       -1.034411
H       -1.851772       -1.055126        0.369256