10
  Step 0: 0.0 fs
C       -1.803705       -0.067737        0.000066
H       -2.311499        0.330666        0.889264
H       -2.311372        0.329952       -0.889484
H       -1.816418       -1.165815        0.000675
C        1.803673        0.067715        0.000028
H        2.310876       -0.329685        0.890053
H        2.312190       -0.330882       -0.888624
H        1.816226        1.165797       -0.000428
N        0.410951       -0.460077       -0.000166
N       -0.410926        0.460089       -0.000122
10
  Step 1: 1.0 fs
C       -1.802827       -0.067989       -0.000549
H       -2.249097        0.356545        0.826599
H       -2.322497        0.295604       -0.897636
H       -1.811116       -1.136661       -0.017499
C        1.813539        0.073144       -0.007951
H        2.305611       -0.361805        0.893809
H        2.279535       -0.350979       -0.829190
H        1.777181        1.247856       -0.011161
N        0.406938       -0.475503       -0.001772
N       -0.414651        0.467442        0.011478
10
  Step 2: 2.0 fs
C       -1.801061       -0.068131       -0.002847
H       -2.200702        0.390171        0.785008
H       -2.332636        0.263179       -0.906401
H       -1.805938       -1.117515       -0.033136
C        1.822091        0.080133       -0.013938
H        2.298962       -0.388642        0.895026
H        2.258540       -0.377463       -0.790476
H        1.741185        1.309329       -0.021731
N        0.402712       -0.489952       -0.003418
N       -0.417812        0.473972        0.022862
10
  Step 3: 3.0 fs
C       -1.797873       -0.068166       -0.008033
H       -2.176364        0.438242        0.779542
H       -2.340866        0.234474       -0.916076
H       -1.801043       -1.115779       -0.043721
C        1.828293        0.089409       -0.016546
H        2.290384       -0.406115        0.892403
H        2.257321       -0.415898       -0.787139
H        1.711200        1.339989       -0.032182
N        0.398151       -0.502584       -0.005112
N       -0.419947        0.478986        0.033788
10
  Step 4: 4.0 fs
C       -1.793648       -0.067704       -0.015561
H       -2.174840        0.496231        0.804062
H       -2.346427        0.211029       -0.926702
H       -1.796597       -1.132088       -0.047011
C        1.832070        0.100465       -0.016183
H        2.280275       -0.411696        0.886008
H        2.272854       -0.461783       -0.813988
H        1.689483        1.336269       -0.042475
N        0.393228       -0.512757       -0.006837
N       -0.420738        0.481947        0.044024
10
  Step 5: 5.0 fs
C       -1.789251       -0.066223       -0.023819
H       -2.188281        0.551072        0.839385
H       -2.348682        0.193943       -0.938007
H       -1.792754       -1.159766       -0.041431
C        1.833932        0.111938       -0.014402
H        2.269846       -0.404509        0.877104
H        2.295477       -0.502839       -0.853550
H        1.677479        1.299331       -0.052452
N        0.388008       -0.520050       -0.008565
N       -0.420041        0.482510        0.053379
10
  Step 6: 6.0 fs
C       -1.785400       -0.063635       -0.031434
H       -2.209536        0.591574        0.869197
H       -2.347041        0.183726       -0.949423
H       -1.789677       -1.188528       -0.026499
C        1.834324        0.122336       -0.012652
H        2.260910       -0.385279        0.867961
H        2.316902       -0.528406       -0.890544
H        1.675601        1.235859       -0.062056
N        0.382633       -0.524275       -0.010271
N       -0.417876        0.480522        0.061724
10
  Step 7: 7.0 fs
C       -1.782542       -0.060187       -0.037564
H       -2.233831        0.611672        0.884071
H       -2.340979        0.180310       -0.960322
H       -1.787582       -1.209050       -0.002944
C        1.833534        0.129996       -0.011903
H        2.255634       -0.356142        0.861691
H        2.332240       -0.532728       -0.915807
H        1.682533        1.161492       -0.071779
N        0.377311       -0.525459       -0.011935
N       -0.414387        0.476029        0.068988
10
  Step 8: 8.0 fs
C       -1.780939       -0.056201       -0.041739
H       -2.258089        0.609259        0.879630
H       -2.330103        0.183125       -0.970263
H       -1.786760       -1.214996        0.027598
C        1.831864        0.132645       -0.012691
H        2.256124       -0.320135        0.861765
H        2.339094       -0.514038       -0.924719
H        1.694434        1.104455       -0.083237
N        0.372314       -0.523820       -0.013550
N       -0.409812        0.469273        0.075155
10
  Step 9: 9.0 fs
C       -1.780721       -0.051930       -0.043726
H       -2.280372        0.584965        0.854878
H       -2.314221        0.191216       -0.979164
H       -1.787569       -1.203668        0.062928
C        1.829613        0.128036       -0.015160
H        2.263781       -0.280274        0.870889
H        2.336888       -0.473681       -0.915935
H        1.706388        1.096037       -0.098910
N        0.367980       -0.519753       -0.015115
N       -0.404471        0.460679        0.080257
10
  Step 10: 10.0 fs
C       -1.781880       -0.047549       -0.043524
H       -2.299946        0.541951        0.811918
H       -2.293366        0.203314       -0.987326
H       -1.790388       -1.176006        0.100595
C        1.826748        0.116525       -0.019148
H        2.278583       -0.238682        0.889556
H        2.327016       -0.416251       -0.891602
H        1.717119        1.139228       -0.119301
N        0.364714       -0.513825       -0.016650
N       -0.398772        0.450859        0.084379
10
  Step 11: 11.0 fs
C       -1.784199       -0.043198       -0.041492
H       -2.318148        0.486730        0.757004
H       -2.267761        0.217876       -0.995322
H       -1.795508       -1.136809        0.138150
C        1.822882        0.101391       -0.024056
H        2.298565       -0.196225        0.914823
H        2.313928       -0.350296       -0.859227
H        1.728650        1.205232       -0.141420
N        0.362976       -0.506767       -0.018198
N       -0.393223        0.440594        0.087661
10
  Step 12: 12.0 fs
C       -1.787101       -0.039079       -0.038537
H       -2.340088        0.430261        0.702190
H       -2.237777        0.233144       -1.003798
H       -1.802973       -1.094785        0.173464
C        1.817500        0.086203       -0.028443
H        2.320084       -0.153116        0.940639
H        2.306546       -0.288158       -0.833833
H        1.741864        1.265297       -0.161588
N        0.363256       -0.499428       -0.019837
N       -0.388414        0.430784        0.090306
10
  Step 13: 13.0 fs
C       -1.789615       -0.035432       -0.036037
H       -2.375118        0.386587        0.663921
H       -2.203958        0.247274       -1.013273
H       -1.812477       -1.061359        0.205002
C        1.810094        0.073470       -0.030425
H        2.339039       -0.110013        0.960243
H        2.316076       -0.241789       -0.833790
H        1.755838        1.303557       -0.177286
N        0.366014       -0.492690       -0.021657
N       -0.384957        0.422360        0.092565
10
  Step 14: 14.0 fs
C       -1.790926       -0.032288       -0.034988
H       -2.430489        0.365676        0.653008
H       -2.167105        0.258559       -1.024026
H       -1.823435       -1.046591        0.231706
C        1.800827        0.064322       -0.029264
H        2.352121       -0.068482        0.968677
H        2.346192       -0.215039       -0.864504
H        1.768832        1.313691       -0.187141
N        0.371553       -0.487321       -0.023741
N       -0.383353        0.416123        0.094706
10
  Step 15: 15.0 fs
C       -1.791268       -0.029373       -0.035031
H       -2.501045        0.366795        0.664157
H       -2.128390        0.265692       -1.036117
H       -1.835207       -1.053671        0.252202
C        1.790907        0.058844       -0.026087
H        2.357443       -0.030797        0.963951
H        2.387617       -0.203687       -0.911372
H        1.778932        1.294674       -0.190625
N        0.379903       -0.483842       -0.026127
N       -0.383862        0.412595        0.096964
10
  Step 16: 16.0 fs
C       -1.791679       -0.026588       -0.034956
H       -2.572151        0.382567        0.682638
H       -2.089349        0.267890       -1.049306
H       -1.847227       -1.077154        0.264306
C        1.781775        0.056813       -0.022632
H        2.354824        0.000404        0.947248
H        2.427261       -0.202630       -0.954980
H        1.784323        1.248938       -0.188018
N        0.390754       -0.482435       -0.028793
N       -0.386414        0.411909        0.099506
10
  Step 17: 17.0 fs
C       -1.793121       -0.024233       -0.033748
H       -2.630224        0.405710        0.695964
H       -2.051698        0.264837       -1.062903
H       -1.858977       -1.106862        0.265724
C        1.774410        0.057850       -0.020265
H        2.345987        0.022398        0.922854
H        2.455899       -0.208826       -0.982388
H        1.783438        1.183095       -0.180630
N        0.403462       -0.482944       -0.031664
N       -0.390620        0.413805        0.102430
10
  Step 18: 18.0 fs
C       -1.796124       -0.022718       -0.030945
H       -2.666847        0.431074        0.697011
H       -2.017127        0.256552       -1.075809
H       -1.870000       -1.133156        0.255227
C        1.769246        0.061098       -0.019870
H        2.334391        0.032748        0.897588
H        2.468900       -0.220667       -0.987568
H        1.775124        1.110749       -0.171187
N        0.417142       -0.484965       -0.034624
N       -0.395862        0.417723        0.105770
10
  Step 19: 19.0 fs
C       -1.800854       -0.022340       -0.026551
H       -2.678068        0.455259        0.682775
H       -1.987114        0.243287       -1.086673
H       -1.879953       -1.149312        0.233090
C        1.766333        0.064845       -0.021906
H        2.324441        0.029747        0.879450
H        2.464764       -0.237096       -0.969039
H        1.758850        1.055475       -0.164051
N        0.430791       -0.487958       -0.037537
N       -0.401412        0.422935        0.109519
10
  Step 20: 20.0 fs
C       -1.807189       -0.023199       -0.020898
H       -2.663348        0.476195        0.653137
H       -1.962827        0.225569       -1.094217
H       -1.888703       -1.152165        0.201032
C        1.765566        0.066972       -0.026347
H        2.319444        0.012986        0.874418
H        2.444396       -0.257362       -0.928797
H        1.734703        1.044516       -0.163772
N        0.443416       -0.491366       -0.040262
N       -0.406566        0.428684        0.113637
10
  Step 21: 21.0 fs
C       -1.814721       -0.025236       -0.014572
H       -2.625586        0.493344        0.610692
H       -1.945072        0.204278       -1.097610
H       -1.896390       -1.142083        0.161973
C        1.766805        0.066939       -0.032716
H        2.319535       -0.016130        0.883300
H        2.411438       -0.281337       -0.872729
H        1.703747        1.084859       -0.171213
N        0.454127       -0.494686       -0.042677
N       -0.410731        0.434268        0.118060
10
  Step 22: 22.0 fs
C       -1.822657       -0.028308       -0.008417
H       -2.572267        0.508658        0.561443
H       -1.934244        0.180711       -1.096797
H       -1.903526       -1.123015        0.119798
C        1.769610        0.066589       -0.039984
H        2.321574       -0.054360        0.901550
H        2.373775       -0.310566       -0.812347
H        1.669429        1.154235       -0.182710
N        0.462207       -0.497479       -0.044676
N       -0.413484        0.439077        0.122703
10
  Step 23: 23.0 fs
C       -1.829710       -0.032349       -0.003559
H       -2.516828        0.528280        0.515676
H       -1.930301        0.156572       -1.092697
H       -1.911020       -1.102178        0.078985
C        1.773031        0.068283       -0.046454
H        2.321143       -0.097300        0.922113
H        2.344076       -0.349456       -0.764962
H        1.637026        1.224687       -0.194250
N        0.467171       -0.499347       -0.046176
N       -0.414569        0.442601        0.127462
10
  Step 24: 24.0 fs
C       -1.834348       -0.037434       -0.001175
H       -2.475859        0.562027        0.485699
H       -1.932806        0.133834       -1.087187
H       -1.920146       -1.088696        0.044026
C        1.776063        0.073520       -0.050497
H        2.314724       -0.140327        0.938640
H        2.334066       -0.403117       -0.745916
H        1.611416        1.277811       -0.203626
N        0.468779       -0.499944       -0.047114
N       -0.413887        0.444441        0.132214
10
  Step 25: 25.0 fs
C       -1.835726       -0.043376       -0.001795
H       -2.458382        0.615320        0.477807
H       -1.941043        0.114486       -1.082772
H       -1.932208       -1.090100        0.018703
C        1.778594        0.082380       -0.051843
H        2.300600       -0.179321        0.946931
H        2.343684       -0.469236       -0.755061
H        1.596042        1.304404       -0.209954
N        0.467019       -0.499021       -0.047452
N       -0.411480        0.444327        0.136827
10
  Step 26: 26.0 fs
C       -1.834329       -0.049311       -0.004886
H       -2.458660        0.680163        0.486818
H       -1.954143        0.100185       -1.081838
H       -1.947941       -1.108181        0.005676
C        1.781308        0.093697       -0.051480
H        2.278843       -0.211062        0.945181
H        2.362189       -0.535984       -0.778752
H        1.592966        1.301242       -0.212957
N        0.462085       -0.496460       -0.047196
N       -0.407518        0.442134        0.141178
10
  Step 27: 27.0 fs
C       -1.831263       -0.054300       -0.009485
H       -2.464834        0.741029        0.502609
H       -1.971141        0.091909       -1.085600
H       -1.967017       -1.137580        0.006347
C        1.784784        0.105950       -0.050523
H        2.251064       -0.233421        0.933822
H        2.378892       -0.590532       -0.803327
H        1.603126        1.269497       -0.212761
N        0.454369       -0.492316       -0.046409
N       -0.402300        0.437916        0.145171
10
  Step 28: 28.0 fs
C       -1.827484       -0.057952       -0.014860
H       -2.467970        0.785173        0.517195
H       -1.990899        0.089736       -1.093419
H       -1.988066       -1.168682        0.020797
C        1.789172        0.117659       -0.049746
H        2.220160       -0.245536        0.915581
H        2.387569       -0.624315       -0.820531
H        1.626286        1.215529       -0.210173
N        0.444429       -0.486823       -0.045210
N       -0.396264        0.431923        0.148751
10
  Step 29: 29.0 fs
C       -1.823664       -0.060299       -0.020599
H       -2.463440        0.805484        0.526090
H       -2.012027        0.092866       -1.103045
H       -2.009191       -1.192010        0.047820
C        1.794369        0.127156       -0.049636
H        2.189954       -0.247969        0.895481
H        2.385525       -0.633034       -0.826431
H        1.660578        1.153740       -0.207228
N        0.432980       -0.480397       -0.043779
N       -0.389973        0.424613        0.151912
10
  Step 30: 30.0 fs
C       -1.820258       -0.061525       -0.026486
H       -2.449714        0.799495        0.527471
H       -2.032934        0.099850       -1.111570
H       -2.028505       -1.200677        0.085172
C        1.800187        0.132275       -0.050452
H        2.164657       -0.242669        0.880377
H        2.372369       -0.615682       -0.819896
H        1.702342        1.108907       -0.207683
N        0.420893       -0.473623       -0.042349
N       -0.384123        0.416652        0.154702
10
  Step 31: 31.0 fs
C       -1.817542       -0.061843       -0.032390
H       -2.427479        0.768397        0.521533
H       -2.052023        0.108913       -1.116488
H       -2.044454       -1.191173        0.129977
C        1.806326        0.131080       -0.052257
H        2.147950       -0.232345        0.877324
H        2.349642       -0.574424       -0.802134
H        1.747952        1.106810       -0.215607
N        0.409166       -0.467221       -0.041191
N       -0.379507        0.408886        0.157219
10
  Step 32: 32.0 fs
C       -1.815569       -0.061523       -0.038251
H       -2.399740        0.717263        0.510643
H       -2.067945        0.118243       -1.116453
H       -2.055977       -1.163496        0.179115
C        1.812202        0.123998       -0.054939
H        2.141834       -0.219099        0.890475
H        2.321582       -0.515860       -0.777840
H        1.796257        1.148957       -0.230902
N        0.398834       -0.461967       -0.040590
N       -0.376938        0.402242        0.159590
10
  Step 33: 33.0 fs
C       -1.814059       -0.060994       -0.044167
H       -2.372659        0.656242        0.500232
H       -2.079842        0.126208       -1.111585
H       -2.062572       -1.121324        0.229602
C        1.817031        0.114086       -0.057799
H        2.145957       -0.203345        0.918141
H        2.296910       -0.453002       -0.757929
H        1.846422        1.210558       -0.248595
N        0.390841       -0.458573       -0.040811
N       -0.377127        0.397581        0.161947
10
  Step 34: 34.0 fs
C       -1.812335       -0.060855       -0.050481
H       -2.355778        0.600670        0.499197
H       -2.087539        0.131550       -1.103394
H       -2.064361       -1.072161        0.279038
C        1.819949        0.104833       -0.059111
H        2.158083       -0.184266        0.952799
H        2.288822       -0.403993       -0.760139
H        1.895768        1.266110       -0.263413
N        0.385876       -0.457516       -0.042058
N       -0.380513        0.395513        0.164388
10
  Step 35: 35.0 fs
C       -1.809621       -0.061493       -0.057558
H       -2.358409        0.565651        0.516462
H       -2.091625        0.133475       -1.094489
H       -2.062045       -1.026484        0.326035
C        1.820529        0.098356       -0.057254
H        2.175378       -0.161313        0.984762
H        2.306588       -0.380742       -0.796971
H        1.940789        1.300911       -0.272100
N        0.384224       -0.458894       -0.044423
N       -0.387131        0.396252        0.166937
10
  Step 36: 36.0 fs
C       -1.805759       -0.062471       -0.065092
H       -2.381637        0.555753        0.552408
H       -2.093373        0.131679       -1.088114
H       -2.056526       -0.994779        0.370120
C        1.819583        0.094758       -0.052519
H        2.195408       -0.135068        1.006193
H        2.344310       -0.378188       -0.858533
H        1.978193        1.308867       -0.273112
N        0.385707       -0.462371       -0.047863
N       -0.396562        0.399566        0.169518
10
  Step 37: 37.0 fs
C       -1.801458       -0.062807       -0.071865
H       -2.416642        0.563632        0.596526
H       -2.094375        0.126210       -1.087311
H       -2.048142       -0.982747        0.410371
C        1.818558        0.093221       -0.046476
H        2.216369       -0.107140        1.012653
H        2.387530       -0.384093       -0.922121
H        2.005245        1.289011       -0.266120
N        0.389765       -0.467269       -0.052215
N       -0.408005        0.404874        0.171975
10
  Step 38: 38.0 fs
C       -1.797726       -0.061903       -0.076437
H       -2.452452        0.579112        0.635719
H       -2.095947        0.117161       -1.093593
H       -2.036261       -0.988891        0.444079
C        1.818536        0.093038       -0.040502
H        2.237232       -0.079922        1.003331
H        2.424810       -0.390154       -0.970080
H        2.019908        1.244048       -0.251865
N        0.395616       -0.472739       -0.057244
N       -0.420439        0.411420        0.174105
10
  Step 39: 39.0 fs
C       -1.795411       -0.059791       -0.077797
H       -2.481249        0.594674        0.660633
H       -2.098587        0.104430       -1.105883
H       -2.019862       -1.006819        0.467148
C        1.820009        0.093570       -0.035458
H        2.257825       -0.056357        0.980874
H        2.449973       -0.392714       -0.993287
H        2.021154        1.181265       -0.232366
N        0.402427       -0.477920       -0.062683
N       -0.432796        0.418427        0.175701
10
  Step 40: 40.0 fs
C       -1.795097       -0.056800       -0.075569
H       -2.498789        0.605760        0.666373
H       -2.101808        0.087734       -1.120637
H       -1.998375       -1.029291        0.475950
C        1.822957        0.093831       -0.031863
H        2.278995       -0.039661        0.951070
H        2.460384       -0.390664       -0.988405
H        2.009576        1.115095       -0.211300
N        0.409440       -0.482064       -0.068268
N       -0.444096        0.425220        0.176591
10
  Step 41: 41.0 fs
C       -1.797115       -0.053314       -0.069910
H       -2.503399        0.609856        0.651419
H       -2.104494        0.066899       -1.133180
H       -1.972075       -1.050525        0.468583
C        1.826947        0.092208       -0.029977
H        2.302431       -0.032801        0.921765
H        2.455642       -0.384225       -0.955902
H        1.987812        1.068765       -0.193901
N        0.416025       -0.484603       -0.073761
N       -0.453517        0.431273        0.176645
10
  Step 42: 42.0 fs
C       -1.801508       -0.049702       -0.061348
H       -2.495623        0.606241        0.617122
H       -2.105454        0.042168       -1.139432
H       -1.942045       -1.066935        0.445222
C        1.831361        0.087105       -0.029803
H        2.329794       -0.037607        0.900509
H        2.437369       -0.374761       -0.899852
H        1.958966        1.065705       -0.184797
N        0.421675       -0.485164       -0.078950
N       -0.460415        0.436218        0.175789
10
  Step 43: 43.0 fs
C       -1.807955       -0.046374       -0.050711
H       -2.478716        0.596491        0.568026
H       -2.103785        0.014292       -1.136977
H       -1.910017       -1.077165        0.408048
C        1.835711        0.078789       -0.030980
H        2.361021       -0.053909        0.891274
H        2.410349       -0.365655       -0.829669
H        1.923640        1.107822       -0.184062
N        0.425990       -0.483569       -0.083662
N       -0.464335        0.439828        0.173987
10
  Step 44: 44.0 fs
C       -1.815647       -0.043880       -0.039135
H       -2.459938        0.585838        0.512784
H       -2.099039       -0.015507       -1.125606
H       -1.878149       -1.082073        0.361008
C        1.839379        0.069774       -0.032386
H        2.393247       -0.079399        0.893053
H        2.384870       -0.364058       -0.763037
H        1.881655        1.172306       -0.187556
N        0.428677       -0.479814       -0.087766
N       -0.465023        0.442005        0.171248
10
  Step 45: 45.0 fs
C       -1.823262       -0.042996       -0.027992
H       -2.451027        0.583877        0.463821
H       -2.091264       -0.045643       -1.107445
H       -1.848778       -1.084368        0.309387
C        1.841298        0.063002       -0.032062
H        2.421554       -0.110428        0.901424
H        2.376225       -0.380721       -0.724018
H        1.835315        1.233448       -0.191191
N        0.429577       -0.474025       -0.091175
N       -0.462437        0.442768        0.167614
10
  Step 46: 46.0 fs
C       -1.829391       -0.044393       -0.018432
H       -2.463509        0.600343        0.432341
H       -2.080966       -0.074299       -1.086699
H       -1.824097       -1.088013        0.259123
C        1.840835        0.060168       -0.028734
H        2.441005       -0.143219        0.911424
H        2.392962       -0.421138       -0.726097
H        1.788678        1.274680       -0.192653
N        0.428679       -0.466445       -0.093841
N       -0.456757        0.442257        0.163162
10
  Step 47: 47.0 fs
C       -1.833471       -0.047887       -0.010714
H       -2.498517        0.635041        0.420442
H       -2.069030       -0.099580       -1.068838
H       -1.805810       -1.096969        0.215833
C        1.838789        0.061008       -0.023187
H        2.448005       -0.174606        0.919160
H        2.425564       -0.475744       -0.758010
H        1.745855        1.288074       -0.190851
N        0.426117       -0.457449       -0.095759
N       -0.448368        0.440727        0.158009
10
  Step 48: 48.0 fs
C       -1.835981       -0.052420       -0.004292
H       -2.545044        0.675931        0.421571
H       -2.056522       -0.119641       -1.058988
H       -1.794970       -1.113279        0.183831
C        1.836451        0.064293       -0.017036
H        2.440722       -0.202297        0.922163
H        2.457729       -0.528529       -0.799167
H        1.710374        1.271536       -0.185355
N        0.422175       -0.447553       -0.096972
N       -0.437841        0.438557        0.152313
10
  Step 49: 49.0 fs
C       -1.837681       -0.056995        0.001407
H       -2.589592        0.709016        0.427995
H       -2.044297       -0.132879       -1.059727
H       -1.792046       -1.135648        0.165633
C        1.834588        0.068856       -0.011478
H        2.419197       -0.224912        0.919646
H        2.478470       -0.567827       -0.834919
H        1.685076        1.227532       -0.176268
N        0.417287       -0.437428       -0.097583
N       -0.425906        0.436248        0.146278
10
  Step 50: 50.0 fs
C       -1.839113       -0.061198        0.006568
H       -2.622523        0.724950        0.434553
H       -2.032716       -0.138167       -1.069848
H       -1.797027       -1.159733        0.162006
C        1.833409        0.073615       -0.007207
H        2.385312       -0.242037        0.912838
H        2.482796       -0.587514       -0.857587
H        1.671876        1.163986       -0.164441
N        0.412025       -0.427882       -0.097757
N       -0.413433        0.434415        0.140157
10
  Step 51: 51.0 fs
C       -1.840561       -0.065064        0.011018
H       -2.638632        0.719504        0.438623
H       -2.021710       -0.135107       -1.085046
H       -1.809468       -1.179975        0.172333
C        1.832847        0.077188       -0.004625
H        2.342549       -0.254262        0.905111
H        2.469361       -0.585107       -0.863764
H        1.671062        1.096845       -0.151905
N        0.407056       -0.419808       -0.097702
N       -0.401374        0.433761        0.134234
10
  Step 52: 52.0 fs
C       -1.842112       -0.068823        0.014430
H       -2.636256        0.692386        0.439431
H       -2.011092       -0.124185       -1.099904
H       -1.828468       -1.191429        0.194955
C        1.832780        0.077648       -0.003945
H        2.295485       -0.263136        0.901655
H        2.439053       -0.560538       -0.852620
H        1.680530        1.051265       -0.141983
N        0.403042       -0.414052       -0.097644
N       -0.390655        0.434972        0.128785
10
  Step 53: 53.0 fs
C       -1.843648       -0.072768        0.016466
H       -2.617003        0.646814        0.437844
H       -2.000818       -0.106740       -1.109628
H       -1.852683       -1.190929        0.227504
C        1.832981        0.073374       -0.005216
H        2.248706       -0.270699        0.908059
H        2.395009       -0.516373       -0.825994
H        1.697190        1.050982       -0.137489
N        0.400536       -0.411238       -0.097776
N       -0.382050        0.438577        0.124033
10
  Step 54: 54.0 fs
C       -1.844756       -0.077275        0.016812
H       -2.586561        0.590117        0.436807
H       -1.991128       -0.084750       -1.111221
H       -1.880348       -1.177753        0.267206
C        1.832798        0.065011       -0.008186
H        2.205414       -0.278440        0.927488
H        2.344095       -0.459514       -0.790633
H        1.720569        1.095450       -0.137324
N        0.399863       -0.411623       -0.098225
N       -0.376069        0.444805        0.120108
10
  Step 55: 55.0 fs
C       -1.844641       -0.082830        0.015145
H       -2.555446        0.534226        0.441887
H       -1.982620       -0.060574       -1.103938
H       -1.909327       -1.153995        0.311198
C        1.831083        0.055547       -0.011672
H        2.166806       -0.286312        0.958015
H        2.299262       -0.403407       -0.762305
H        1.751814        1.160456       -0.137230
N        0.401042       -0.415018       -0.099023
N       -0.372885        0.453494        0.117024
10
  Step 56: 56.0 fs
C       -1.842295       -0.089871        0.011197
H       -2.536846        0.493342        0.460339
H       -1.976272       -0.036614       -1.089472
H       -1.937257       -1.124513        0.356854
C        1.826531        0.048215       -0.013310
H        2.132832       -0.292947        0.992713
H        2.278245       -0.365698       -0.765158
H        1.790265        1.221254       -0.133552
N        0.403784       -0.420815       -0.100119
N       -0.372333        0.464092        0.114695
10
  Step 57: 57.0 fs
C       -1.837221       -0.098210        0.005160
H       -2.537819        0.475957        0.495936
H       -1.973422       -0.015013       -1.071867
H       -1.961834       -1.096066        0.402058