10
  Step 0: 0.0 fs
C       -1.803707       -0.067739        0.000061
H       -2.311489        0.330642        0.889273
H       -2.311386        0.329966       -0.889474
H       -1.816428       -1.165811        0.000652
C        1.803678        0.067711        0.000029
H        2.310886       -0.329664        0.890051
H        2.312187       -0.330899       -0.888621
H        1.816220        1.165786       -0.000465
N        0.410952       -0.460070       -0.000164
N       -0.410927        0.460088       -0.000118
10
  Step 1: 1.0 fs
C       -1.805764       -0.059952       -0.010504
H       -2.331475        0.314194        0.862751
H       -2.314948        0.295967       -0.826158
H       -1.779545       -1.213639        0.014672
C        1.812263        0.067456       -0.014937
H        2.337655       -0.331440        0.873062
H        2.297766       -0.320414       -0.817538
H        1.858182        1.112026        0.044721
N        0.413295       -0.462294        0.007118
N       -0.423735        0.466172        0.003676
10
  Step 2: 2.0 fs
C       -1.806664       -0.054501       -0.019216
H       -2.352162        0.299039        0.841415
H       -2.330484        0.271321       -0.787753
H       -1.744392       -1.246873        0.027604
C        1.819658        0.066618       -0.027226
H        2.362189       -0.334202        0.856009
H        2.297767       -0.321514       -0.775183
H        1.899034        1.077304        0.087918
N        0.415168       -0.463909        0.014310
N       -0.435804        0.471868        0.007393
10
  Step 3: 3.0 fs
C       -1.805440       -0.052813       -0.024609
H       -2.373632        0.285937        0.828915
H       -2.367941        0.262369       -0.792840
H       -1.712950       -1.258041        0.038216
C        1.824763        0.065000       -0.034837
H        2.382781       -0.339341        0.839402
H        2.324202       -0.343984       -0.783856
H        1.938506        1.074572        0.128219
N        0.416225       -0.464421        0.021317
N       -0.446532        0.476895        0.010951
10
  Step 4: 4.0 fs
C       -1.802603       -0.054945       -0.027140
H       -2.394882        0.275011        0.825913
H       -2.421377        0.265247       -0.834466
H       -1.686923       -1.245104        0.045489
C        1.828086        0.062482       -0.038332
H        2.398423       -0.348353        0.824016
H        2.370245       -0.382032       -0.834610
H        1.975841        1.100483        0.163637
N        0.416235       -0.463472        0.028052
N       -0.455447        0.481100        0.014281
10
  Step 5: 5.0 fs
C       -1.799726       -0.060094       -0.028330
H       -2.413847        0.265848        0.829915
H       -2.474037        0.270992       -0.890462
H       -1.667546       -1.210490        0.048704
C        1.831174        0.059137       -0.039569
H        2.408693       -0.362345        0.810299
H        2.417832       -0.420513       -0.901091
H        2.008974        1.139738        0.190436
N        0.415083       -0.460840        0.034435
N       -0.462196        0.484452        0.017332
10
  Step 6: 6.0 fs
C       -1.798191       -0.067206       -0.029271
H       -2.428080        0.257819        0.836690
H       -2.512305        0.273064       -0.942544
H       -1.655411       -1.161562        0.047496
C        1.835211        0.055367       -0.039879
H        2.413604       -0.381720        0.798193
H        2.453376       -0.448227       -0.963018
H        2.035481        1.176488        0.205101
N        0.412760       -0.456435        0.040394
N       -0.466563        0.487024        0.020066
10
  Step 7: 7.0 fs
C       -1.798838       -0.074924       -0.030470
H       -2.435640        0.250404        0.842147
H       -2.529091        0.268315       -0.980301
H       -1.650013       -1.112253        0.042079
C        1.840725        0.051605       -0.039929
H        2.413542       -0.406196        0.787442
H        2.470151       -0.459882       -1.009493
H        2.053674        1.199863        0.205789
N        0.409353       -0.450287        0.045863
N       -0.468477        0.488959        0.022451
10
  Step 8: 8.0 fs
C       -1.802096       -0.081527       -0.032164
H       -2.435651        0.243319        0.843544
H       -2.521845        0.255724       -0.998730
H       -1.649424       -1.082344        0.033369
C        1.847798        0.048122       -0.040068
H        2.409194       -0.434979        0.777871
H        2.465690       -0.453819       -1.035429
H        2.062912        1.204184        0.192435
N        0.405027       -0.442531        0.050792
N       -0.468016        0.490433        0.024464
10
  Step 9: 9.0 fs
C       -1.808016       -0.085624       -0.034489
H       -2.428596        0.236609        0.840073
H       -2.490914        0.235656       -0.996307
H       -1.651288       -1.088339        0.022464
C        1.856244        0.045002       -0.040514
H        2.401424       -0.466893        0.769433
H        2.439904       -0.430386       -1.039042
H        2.063514        1.187814        0.166388
N        0.400015       -0.433401        0.055146
N       -0.465397        0.491634        0.026087
10
  Step 10: 10.0 fs
C       -1.816118       -0.087364       -0.037441
H       -2.416355        0.230720        0.832983
H       -2.439272        0.209835       -0.974815
H       -1.655114       -1.129096        0.009868
C        1.865671        0.042125       -0.041371
H        2.391150       -0.500420        0.762079
H        2.394590       -0.391612       -1.021348
H        2.056730        1.153135        0.130284
N        0.394617       -0.423226        0.058913
N       -0.460969        0.492749        0.027309
10
  Step 11: 11.0 fs
C       -1.825321       -0.088379       -0.040720
H       -2.401978        0.226448        0.825222
H       -2.373556        0.181775       -0.941211
H       -1.662432       -1.187015       -0.004132
C        1.875427        0.039128       -0.042501
H        2.379313       -0.533739        0.755573
H        2.334062       -0.341887       -0.987732
H        2.044786        1.107628        0.088125
N        0.389203       -0.412425        0.062100
N       -0.455200        0.493975        0.028132
10
  Step 12: 12.0 fs
C       -1.834067       -0.090608       -0.043427
H       -2.389091        0.224748        0.820449
H       -2.305536        0.157429       -0.910996
H       -1.674708       -1.242775       -0.018793
C        1.884500        0.035435       -0.043191
H        2.366908       -0.564803        0.749343
H        2.266437       -0.289303       -0.951526
H        2.030830        1.064931        0.045109
N        0.384204       -0.401499        0.064740
N       -0.448657        0.495536        0.028566
10
  Step 13: 13.0 fs
C       -1.840658       -0.095576       -0.043945
H       -2.380862        0.226357        0.821269
H       -2.250379        0.144567       -0.907857
H       -1.692297       -1.283330       -0.033000
C        1.891564        0.030499       -0.041861
H        2.355150       -0.591691        0.742512
H        2.203472       -0.245785       -0.936754
H        2.018241        1.042318        0.006679
N        0.380096       -0.391009        0.066904
N       -0.441968        0.497693        0.028638
10
  Step 14: 14.0 fs
C       -1.844199       -0.103980       -0.041210
H       -2.379102        0.231464        0.827759
H       -2.216596        0.147948       -0.946783
H       -1.714607       -1.302082       -0.045586
C        1.895617        0.024210       -0.036920
H        2.345643       -0.613214        0.734306
H        2.154195       -0.221335       -0.966649
H        2.009278        1.050618       -0.023157
N        0.377348       -0.381516        0.068696
N       -0.435736        0.500721        0.028398
10
  Step 15: 15.0 fs
C       -1.845161       -0.115412       -0.036300
H       -2.383911        0.239533        0.837335
H       -2.199334        0.164334       -1.014824
H       -1.740396       -1.297215       -0.055488
C        1.896668        0.017052       -0.029039
H        2.340401       -0.629488        0.724770
H        2.117237       -0.215718       -1.036752
H        2.004389        1.084657       -0.042461
N        0.376350       -0.373511        0.070256
N       -0.430467        0.504854        0.027920
10
  Step 16: 16.0 fs
C       -1.844530       -0.128716       -0.031262
H       -2.393884        0.249340        0.845675
H       -2.189636        0.186287       -1.085466
H       -1.767947       -1.271244       -0.061906
C        1.895181        0.009984       -0.020848
H        2.341552       -0.641893        0.714933
H        2.086615       -0.222056       -1.119131
H        2.003041        1.128119       -0.050603
N        0.377366       -0.367345        0.071729
N       -0.426529        0.510211        0.027280
10
  Step 17: 17.0 fs
C       -1.843081       -0.142379       -0.027489
H       -2.406818        0.259290        0.848215
H       -2.181962        0.207623       -1.139013
H       -1.795188       -1.232017       -0.064498
C        1.891420        0.004044       -0.014639
H        2.350671       -0.652126        0.705936
H        2.059061       -0.234299       -1.188998
H        2.004589        1.164878       -0.047783
N        0.380489       -0.363175        0.073240
N       -0.424117        0.516737        0.026546
10
  Step 18: 18.0 fs
C       -1.841311       -0.154518       -0.025571
H       -2.420475        0.267851        0.841473
H       -2.174026        0.224427       -1.165564
H       -1.819917       -1.194240       -0.063525
C        1.885525       -0.000089       -0.011598
H        2.367991       -0.660957        0.697828
H        2.033959       -0.248645       -1.232697
H        2.008464        1.184331       -0.034896
N        0.385611       -0.360934        0.074883
N       -0.423232        0.524163        0.025781
10
  Step 19: 19.0 fs
C       -1.839491       -0.163051       -0.025668
H       -2.433202        0.273982        0.823861
H       -2.165184        0.234381       -1.161590
H       -1.840362       -1.177200       -0.059712
C        1.877715       -0.002219       -0.012053
H        2.392006       -0.667604        0.689071
H        2.011763       -0.262705       -1.244534
H        2.014150        1.181544       -0.013366
N        0.392415       -0.360356        0.076727
N       -0.423694        0.532030        0.025051
10
  Step 20: 20.0 fs
C       -1.837676       -0.166666       -0.027795
H       -2.444345        0.277465        0.796092
H       -2.155644        0.236325       -1.127756
H       -1.855682       -1.193313       -0.053584
C        1.868359       -0.002557       -0.015816
H        2.419720       -0.670193        0.677161
H        1.993231       -0.274840       -1.223567
H        2.021161        1.156191        0.015028
N        0.400410       -0.361039        0.078820
N       -0.425175        0.539753        0.024432
10
  Step 21: 21.0 fs
C       -1.835744       -0.165853       -0.031859
H       -2.454405        0.278987        0.761248
H       -2.146402        0.230378       -1.068920
H       -1.865507       -1.236286       -0.045021
C        1.857931       -0.001629       -0.022376
H        2.447447       -0.666888        0.659836
H        1.979243       -0.283979       -1.172720
H        2.029173        1.112418        0.048330
N        0.408974       -0.362513        0.081207
N       -0.427260        0.546716        0.023998
10
  Step 22: 22.0 fs
C       -1.833404       -0.162431       -0.037389
H       -2.464843        0.279885        0.724350
H       -2.139802        0.218766       -0.996321
H       -1.869411       -1.287362       -0.033897
C        1.846896       -0.000214       -0.030888
H        2.471726       -0.656933        0.636104
H        1.970923       -0.290002       -1.100325
H        2.038325        1.059555        0.084758
N        0.417421       -0.364328        0.083922
N       -0.429507        0.552355        0.023822
10
  Step 23: 23.0 fs
C       -1.830094       -0.158482       -0.043100
H       -2.477500        0.281628        0.691374
H       -2.140751        0.207280       -0.930948
H       -1.867169       -1.328945       -0.020699
C        1.835563        0.000821       -0.039948
H        2.490007       -0.641234        0.606787
H        1.970050       -0.294861       -1.023660
H        2.049530        1.011732        0.123170
N        0.425075       -0.366105        0.086993
N       -0.431528        0.556216        0.023956
10
  Step 24: 24.0 fs
C       -1.825058       -0.155767       -0.046992
H       -2.493420        0.285094        0.667383
H       -2.156580        0.204697       -0.900473
H       -1.858945       -1.350034       -0.006435
C        1.823983        0.001008       -0.047430
H        2.501124       -0.622478        0.574607
H        1.979705       -0.303826       -0.970900
H        2.064124        0.983506        0.163153
N        0.431334       -0.367576        0.090425
N       -0.433031        0.557980        0.024420
10
  Step 25: 25.0 fs
C       -1.817978       -0.155056       -0.047961
H       -2.511781        0.290062        0.654734
H       -2.190783        0.215042       -0.918703
H       -1.845147       -1.345885        0.007796
C        1.812115        0.000702       -0.051386
H        2.505458       -0.604730        0.543748
H        2.003244       -0.322576       -0.968274
H        2.082195        0.981344        0.203621
N        0.435728       -0.368597        0.094187
N       -0.433840        0.557481        0.025197
10
  Step 26: 26.0 fs
C       -1.809612       -0.155703       -0.047042
H       -2.529692        0.295253        0.652439
H       -2.236076        0.231326       -0.970551
H       -1.826267       -1.316894        0.021110
C        1.800373        0.000567       -0.052083
H        2.504656       -0.592563        0.518854
H        2.039322       -0.348346       -1.013289
H        2.101216        0.999985        0.241313
N        0.437955       -0.369144        0.098206
N       -0.433892        0.554703        0.026246
10
  Step 27: 27.0 fs
C       -1.801226       -0.156349       -0.045924
H       -2.543146        0.298938        0.657104
H       -2.280434        0.243433       -1.030862
H       -1.802885       -1.268672        0.032938
C        1.789740        0.001042       -0.051551
H        2.500629       -0.589673        0.503432
H        2.080478       -0.370771       -1.079472
H        2.116993        1.028052        0.271659
N        0.437890       -0.369305        0.102379
N       -0.433233        0.549789        0.027501
10
  Step 28: 28.0 fs
C       -1.793826       -0.155486       -0.045664
H       -2.548488        0.299703        0.664742
H       -2.314809        0.245191       -1.081788
H       -1.775663       -1.213310        0.043200
C        1.781258        0.002445       -0.051444
H        2.494236       -0.597544        0.498583
H        2.118613       -0.381349       -1.142693
H        2.125676        1.054864        0.290791
N        0.435579       -0.369261        0.106589
N       -0.432007        0.543035        0.028877
10
  Step 29: 29.0 fs
C       -1.788012       -0.151512       -0.046740
H       -2.543458        0.296903        0.672171
H       -2.334192        0.234312       -1.113906
H       -1.745137       -1.169073        0.052549
C        1.775710        0.004942       -0.052483
H        2.484716       -0.615006        0.502953
H        2.148142       -0.376212       -1.189037
H        2.124844        1.073080        0.296510
N        0.431226       -0.369271        0.110716
N       -0.430426        0.534875        0.030276
10
  Step 30: 30.0 fs
C       -1.784072       -0.143227       -0.049369
H       -2.527741        0.290866        0.677808
H       -2.336317        0.210801       -1.123037
H       -1.711532       -1.153175        0.062127
C        1.773562        0.008460       -0.054797
H        2.470294       -0.638839        0.513636
H        2.165856       -0.354606       -1.211755
H        2.113705        1.078899        0.288367
N        0.425171       -0.369646        0.114655
N       -0.428739        0.525859        0.031588
10
  Step 31: 31.0 fs
C       -1.781991       -0.130895       -0.053576
H       -2.503095        0.282920        0.681980
H       -2.320792        0.176158       -1.108423
H       -1.675515       -1.168289        0.072230
C        1.774935        0.012699       -0.058275
H        2.449367       -0.664881        0.527310
H        2.170193       -0.317504       -1.208217
H        2.092956        1.071724        0.267491
N        0.417869       -0.370732        0.118317
N       -0.427195        0.516618        0.032697
10
  Step 32: 32.0 fs
C       -1.781353       -0.116367       -0.059117
H       -2.473115        0.275185        0.686808
H       -2.289226        0.133287       -1.072881
H       -1.639360       -1.200445        0.081636
C        1.779577        0.017158       -0.062724
H        2.421461       -0.689037        0.541098
H        2.160894       -0.267147       -1.178894
H        2.064699        1.054456        0.236655
N        0.409852       -0.372873        0.121626
N       -0.426024        0.507801        0.033484
10
  Step 33: 33.0 fs
C       -1.781329       -0.101942       -0.065330
H       -2.442468        0.270080        0.695537
H       -2.246385        0.086732       -1.025006
H       -1.606410       -1.231934        0.088763
C        1.786823        0.021157       -0.067828
H        2.387606       -0.707901        0.552940
H        2.139360       -0.207303       -1.128484
H        2.032338        1.034264        0.200468
N        0.401683       -0.376382        0.124515
N       -0.425431        0.500009        0.033831
10
  Step 34: 34.0 fs
C       -1.780756       -0.089500       -0.070782
H       -2.415405        0.269527        0.710799
H       -2.201845        0.042621       -0.982783
H       -1.579699       -1.250531        0.092779
C        1.795595        0.023963       -0.072841
H        2.350308       -0.719202        0.561718
H        2.109697       -0.143883       -1.069322
H        1.999883        1.022090        0.165064
N        0.393896       -0.381493        0.126927
N       -0.425574        0.493731        0.033619
10
  Step 35: 35.0 fs
C       -1.778405       -0.080226       -0.073231
H       -2.394303        0.274221        0.732543
H       -2.168846        0.006915       -0.972136
H       -1.561278       -1.250431        0.093742
C        1.804477        0.025157       -0.076143
H        2.313362       -0.722102        0.567260
H        2.079725       -0.084761       -1.025371
H        1.970470        1.028476        0.136636
N        0.386919       -0.388308        0.128805
N       -0.426511        0.489294        0.032753
10
  Step 36: 36.0 fs
C       -1.773804       -0.074487       -0.071210
H       -2.379395        0.283610        0.757453
H       -2.155003       -0.017919       -1.007525
H       -1.552208       -1.230617        0.092406
C        1.812087        0.025020       -0.075596
H        2.281470       -0.717531        0.570315
H        2.058379       -0.036677       -1.025748
H        1.945084        1.056227        0.119175
N        0.381030       -0.396765        0.130096
N       -0.428150        0.486849        0.031176
10
  Step 37: 37.0 fs
C       -1.767761       -0.071991       -0.065683
H       -2.369677        0.296485        0.780449
H       -2.155198       -0.032692       -1.073608
H       -1.552657       -1.193909        0.090014
C        1.817743        0.024457       -0.070850
H        2.259854       -0.708415        0.572796
H        2.047767       -0.001324       -1.076818
H        1.923076        1.097694        0.113499
N        0.376335       -0.406627        0.130762
N       -0.430231        0.486364        0.028887
10
  Step 38: 38.0 fs
C       -1.761552       -0.072069       -0.058720
H       -2.363828        0.311555        0.796616
H       -2.159910       -0.038405       -1.142739
H       -1.561877       -1.147222        0.088121
C        1.821435        0.024676       -0.064155
H        2.253375       -0.698891        0.577388
H        2.042698        0.022422       -1.153105
H        1.903633        1.140102        0.118213
N        0.372794       -0.417507        0.130778
N       -0.432364        0.487642        0.025936
10
  Step 39: 39.0 fs
C       -1.756213       -0.073615       -0.051893
H       -2.360771        0.327780        0.802391
H       -2.162823       -0.035744       -1.195052
H       -1.577974       -1.102732        0.088629
C        1.823221        0.026699       -0.057942
H        2.265003       -0.692007        0.585780
H        2.038365        0.035481       -1.225437
H        1.886454        1.172115        0.131064
N        0.370287       -0.428915        0.130129
N       -0.434105        0.490340        0.022401
10
  Step 40: 40.0 fs
C       -1.752439       -0.075123       -0.046140
H       -2.359956        0.344545        0.796056
H       -2.161077       -0.025549       -1.220502
H       -1.598108       -1.076839        0.093721
C        1.823150        0.030939       -0.053466
H        2.294439       -0.687443        0.596762
H        2.032694        0.038753       -1.275936
H        1.871602        1.186523        0.149713
N        0.368664       -0.440317        0.128806
N       -0.435032        0.493995        0.018381
10
  Step 41: 41.0 fs
C       -1.750584       -0.075327       -0.042011
H       -2.361499        0.361774        0.777872
H       -2.153785       -0.008915       -1.215306
H       -1.619909       -1.082259        0.105051
C        1.821414        0.037141       -0.050993
H        2.337970       -0.681501        0.606208
H        2.025225        0.033485       -1.296166
H        1.859252        1.180646        0.172107
N        0.367784       -0.451189        0.126818
N       -0.434807        0.498055        0.013996
10
  Step 42: 42.0 fs
C       -1.750606       -0.074152       -0.039724
H       -2.366172        0.379969        0.749986
H       -2.141262        0.012899       -1.179873
H       -1.643004       -1.117038        0.122344
C        1.818354        0.044603       -0.050302
H        2.389788       -0.669415        0.609100
H        2.016199        0.021255       -1.283374
H        1.849524        1.156059        0.196707
N        0.367527       -0.461060        0.124196
N       -0.433193        0.501927        0.009380
10
  Step 43: 43.0 fs
C       -1.752175       -0.072632       -0.039116
H       -2.375149        0.400041        0.716075
H       -2.125012        0.038541       -1.118978
H       -1.668189       -1.165756        0.143345
C        1.814377        0.052357       -0.051030
H        2.443644       -0.647674        0.601618
H        2.006217        0.003919       -1.238816
H        1.842389        1.118801        0.222800
N        0.367798       -0.469541        0.120999
N       -0.430067        0.505041        0.004679
10
  Step 44: 44.0 fs
C       -1.754798       -0.071964       -0.039485
H       -2.389364        0.422855        0.680545
H       -2.108429        0.066833       -1.044055
H       -1.695846       -1.211047        0.165148
C        1.809844        0.059267       -0.052691
H        2.494025       -0.615098        0.582116
H        1.996356       -0.016477       -1.168679
H        1.837642        1.079324        0.250828
N        0.368526       -0.476346        0.117311
N       -0.425417        0.506898        0.000042
10
  Step 45: 45.0 fs
C       -1.757822       -0.072966       -0.039317
H       -2.408684        0.448622        0.647481
H       -2.097867        0.097663       -0.976308
H       -1.725625       -1.240583        0.185184
C        1.804965        0.064243       -0.054420
H        2.536954       -0.573021        0.551461
H        1.988675       -0.038050       -1.087344
H        1.834850        1.050454        0.282241
N        0.369665       -0.481318        0.113236
N       -0.419348        0.507118       -0.004392
10
  Step 46: 46.0 fs
C       -1.760549       -0.076070       -0.036547
H       -2.431399        0.476481        0.619691
H       -2.101535        0.132753       -0.942667
H       -1.756753       -1.247784        0.201475
C        1.799675        0.066804       -0.054512
H        2.570532       -0.525122        0.512989
H        1.986910       -0.059944       -1.020916
H        1.833358        1.041422        0.317789
N        0.371212       -0.484435        0.108895
N       -0.412068        0.505467       -0.008509
10
  Step 47: 47.0 fs
C       -1.762810       -0.081158       -0.030265
H       -2.454393        0.504523        0.598390
H       -2.122486        0.172748       -0.955204
H       -1.788252       -1.230876        0.212771
C        1.793667        0.067510       -0.050812
H        2.595339       -0.476910        0.472175
H        1.995619       -0.082679       -0.999858
H        1.832265        1.052416        0.355157
N        0.373217       -0.485822        0.104413
N       -0.403893        0.501870       -0.012226
10
  Step 48: 48.0 fs
C       -1.765305       -0.087227       -0.021808
H       -2.473958        0.530337        0.583433
H       -2.153745        0.212721       -0.998629
H       -1.819084       -1.192979        0.218890
C        1.786823        0.067486       -0.042942
H        2.614301       -0.434758        0.435613
H        2.015102       -0.104841       -1.031501
H        1.830508        1.075963        0.389073
N        0.375789       -0.485738        0.099915
N       -0.395227        0.496410       -0.015489
10
  Step 49: 49.0 fs
C       -1.768933       -0.092584       -0.013245
H       -2.486656        0.551639        0.573785
H       -2.185213        0.245115       -1.049138
H       -1.848466       -1.143260        0.221075
C        1.779512        0.067619       -0.033008
H        2.631354       -0.404358        0.409120
H        2.039039       -0.120981       -1.092240
H        1.827062        1.102650        0.413928
N        0.379089       -0.484550        0.095517
N       -0.386562        0.489309       -0.018280
10
  Step 50: 50.0 fs
C       -1.774167       -0.095240       -0.006138
H       -2.490091        0.566925        0.568302
H       -2.209926        0.264525       -1.090168
H       -1.876400       -1.097664        0.222229
C        1.772342        0.068452       -0.023312
H        2.648640       -0.388913        0.395676
H        2.060103       -0.125974       -1.154615
H        1.821152        1.124936        0.425805
N        0.383306       -0.482716        0.091315
N       -0.378449        0.480902       -0.020610
10
  Step 51: 51.0 fs
C       -1.780994       -0.093356       -0.001493
H       -2.483455        0.575996        0.566433
H       -2.224382        0.268453       -1.113105
H       -1.903848       -1.074887        0.226159
C        1.766007        0.070257       -0.015158
H        2.664592       -0.388398        0.394935
H        2.073695       -0.117626       -1.201521
H        1.812421        1.138109        0.422952
N        0.388623       -0.480746        0.087388
N       -0.371447        0.471609       -0.022513
10
  Step 52: 52.0 fs
C       -1.789132       -0.086258        0.000185
H       -2.467768        0.580231        0.568659
H       -2.227311        0.256532       -1.114369
H       -1.931534       -1.083925        0.234860
C        1.761233        0.073048       -0.009096
H        2.674704       -0.400310        0.404389
H        2.077755       -0.096013       -1.224458
H        1.800998        1.140376        0.405636
N        0.395173       -0.479149        0.083796
N       -0.366056        0.461880       -0.024032
10
  Step 53: 53.0 fs
C       -1.798255       -0.075101       -0.001103
H       -2.445783        0.582502        0.576594
H       -2.218945        0.229958       -1.093729
H       -1.958203       -1.115648        0.246550
C        1.758639        0.076602       -0.005347
H        2.674019       -0.420993        0.420941
H        2.071864       -0.062489       -1.219959
H        1.787476        1.132904        0.375951
N        0.402985       -0.478374        0.080590
N       -0.362647        0.452144       -0.025210
10
  Step 54: 54.0 fs
C       -1.807980       -0.062019       -0.004947
H       -2.421288        0.586446        0.592535
H       -2.201121        0.191453       -1.054586
H       -1.981282       -1.152008        0.257675
C        1.758598        0.080493       -0.004022
H        2.659144       -0.446648        0.441834
H        2.056745       -0.019274       -1.187906
H        1.772812        1.120014        0.337723
N        0.411955       -0.478739        0.077804
N       -0.361419        0.442732       -0.026091
10
  Step 55: 55.0 fs
C       -1.817756       -0.049016       -0.010464
H       -2.397710        0.595011        0.618134
H       -2.178112        0.145570       -1.006122
H       -1.998599       -1.177938        0.265599
C        1.761162        0.084156       -0.005068
H        2.629053       -0.473814        0.464968
H        2.034377        0.030529       -1.132090
H        1.758106        1.108782        0.296232
N        0.421826       -0.480398        0.075454
N       -0.362383        0.433840       -0.026712
10
  Step 56: 56.0 fs
C       -1.826855       -0.037515       -0.015936
H       -2.376512        0.608745        0.652437
H       -2.157570        0.098680       -0.966252
H       -2.009011       -1.184853        0.269315
C        1.766011        0.087058       -0.007987
H        2.585292       -0.499718        0.488940
H        2.008594        0.082875       -1.062898
H        1.744276        1.107281        0.257505
N        0.432204       -0.483325        0.073526
N       -0.365375        0.425511       -0.027116
10
  Step 57: 57.0 fs
C       -1.834519       -0.028247       -0.018998
H       -2.357120        0.625537        0.690995
H       -2.148999        0.057087       -0.958291
H       -2.012237       -1.169825        0.269207