10
  Step 0: 0.0 fs
C       -1.803700       -0.067741        0.000071
H       -2.311465        0.330631        0.889312
H       -2.311402        0.329994       -0.889422
H       -1.816416       -1.165819        0.000626
C        1.803673        0.067711        0.000037
H        2.310862       -0.329673        0.890078
H        2.312205       -0.330900       -0.888604
H        1.816228        1.165784       -0.000461
N        0.410953       -0.460073       -0.000168
N       -0.410931        0.460092       -0.000137
10
  Step 1: 1.0 fs
C       -1.816708       -0.066213        0.006728
H       -2.293199        0.274482        0.871843
H       -2.238585        0.290151       -0.817442
H       -1.864538       -1.180752       -0.010877
C        1.799881        0.064152        0.010358
H        2.317431       -0.304115        0.863540
H        2.373459       -0.320675       -0.902095
H        1.829133        1.163422       -0.007966
N        0.404404       -0.457559       -0.004179
N       -0.398888        0.464900       -0.010351
10
  Step 2: 2.0 fs
C       -1.827149       -0.066963        0.014954
H       -2.283552        0.227030        0.870053
H       -2.187968        0.268323       -0.782689
H       -1.909410       -1.191240       -0.022028
C        1.796483        0.060827        0.018951
H        2.327951       -0.283734        0.847699
H        2.426540       -0.307823       -0.906755
H        1.840692        1.160945       -0.014976
N        0.398421       -0.455412       -0.008140
N       -0.387560        0.469775       -0.020392
10
  Step 3: 3.0 fs
C       -1.833221       -0.071659        0.026109
H       -2.289086        0.194534        0.895776
H       -2.175252        0.279233       -0.815917
H       -1.948152       -1.194896       -0.032621
C        1.793778        0.058001        0.024704
H        2.345089       -0.272115        0.850091
H        2.465794       -0.291729       -0.898079
H        1.849663        1.158199       -0.021022
N        0.393522       -0.453979       -0.011991
N       -0.377571        0.474809       -0.030089
10
  Step 4: 4.0 fs
C       -1.835866       -0.079425        0.038284
H       -2.308863        0.177792        0.946365
H       -2.191097        0.314634       -0.894020
H       -1.978485       -1.191737       -0.042606
C        1.792224        0.055752        0.027459
H        2.367007       -0.269310        0.870454
H        2.488231       -0.273264       -0.875220
H        1.855006        1.155227       -0.025562
N        0.390131       -0.453535       -0.015673
N       -0.369411        0.480063       -0.039286
10
  Step 5: 5.0 fs
C       -1.837082       -0.088172        0.049078
H       -2.335219        0.173366        1.006393
H       -2.219438        0.357382       -0.974521
H       -1.998976       -1.183603       -0.052109
C        1.792409        0.053966        0.027883
H        2.387640       -0.272399        0.901622
H        2.493383       -0.254350       -0.840259
H        1.855973        1.152345       -0.027941
N        0.388526       -0.454225       -0.019141
N       -0.363435        0.485507       -0.047864
10
  Step 6: 6.0 fs
C       -1.838277       -0.096200        0.057726
H       -2.359600        0.176892        1.059243
H       -2.250898        0.396492       -1.032455
H       -2.009181       -1.173559       -0.061397
C        1.794714        0.052527        0.027062
H        2.400186       -0.277697        0.934622
H        2.483670       -0.237860       -0.798256
H        1.852166        1.150064       -0.027436
N        0.388801       -0.456029       -0.022371
N       -0.359836        0.490992       -0.055741
10
  Step 7: 7.0 fs
C       -1.840161       -0.102331        0.064289
H       -2.375999        0.184782        1.093751
H       -2.280998        0.426606       -1.057731
H       -2.009499       -1.165456       -0.070742
C        1.798994        0.051469        0.026236
H        2.399908       -0.282277        0.962424
H        2.465202       -0.227680       -0.757832
H        1.843578        1.148916       -0.023447
N        0.390876       -0.458749       -0.025357
N       -0.358626        0.496237       -0.062861
10
  Step 8: 8.0 fs
C       -1.843006       -0.105775        0.068943
H       -2.381225        0.194412        1.104433
H       -2.307403        0.445108       -1.047194
H       -2.000816       -1.162802       -0.080272
C        1.804548        0.050997        0.026701
H        2.384756       -0.284355        0.980824
H        2.447526       -0.228372       -0.730546
H        1.830661        1.149173       -0.015740
N        0.394517       -0.462045       -0.028108
N       -0.359643        0.500855       -0.069179
10
  Step 9: 9.0 fs
C       -1.846847       -0.106136        0.071745
H       -2.374226        0.203985        1.090188
H       -2.328723        0.450710       -1.000897
H       -1.984079       -1.167138       -0.089747
C        1.810463        0.051377        0.029435
H        2.355202       -0.283316        0.988419
H        2.439775       -0.243471       -0.726421
H        1.814368        1.150651       -0.004631
N        0.399380       -0.465491       -0.030643
N       -0.362599        0.504413       -0.074657
10
  Step 10: 10.0 fs
C       -1.851542       -0.103466        0.072586
H       -2.355864        0.212557        1.054015
H       -2.344253        0.443158       -0.921361
H       -1.960131       -1.177070       -0.098386
C        1.816217        0.052679        0.034472
H        2.313975       -0.279711        0.986607
H        2.444052       -0.272614       -0.746352
H        1.796127        1.152793        0.008978
N        0.405048       -0.468649       -0.032983
N       -0.367129        0.506493       -0.079268
10
  Step 11: 11.0 fs
C       -1.856655       -0.098337        0.071256
H       -2.329183        0.220345        1.004068
H       -2.354691        0.424074       -0.815302
H       -1.929935       -1.188684       -0.104966
C        1.821797        0.054695        0.040720
H        2.265916       -0.275377        0.979939
H        2.454268       -0.310628       -0.780454
H        1.777685        1.154932        0.023756
N        0.411073       -0.471118       -0.035152
N       -0.372843        0.506761       -0.083008
10
  Step 12: 12.0 fs
C       -1.861170       -0.091957        0.067739
H       -2.299794        0.229234        0.955256
H       -2.364636        0.399520       -0.698081
H       -1.894959       -1.197196       -0.108210
C        1.827244        0.057132        0.046567
H        2.217388       -0.273302        0.975891
H        2.462219       -0.350325       -0.815158
H        1.760879        1.156552        0.038212
N        0.417014       -0.472581       -0.037187
N       -0.379368        0.505002       -0.085910
10
  Step 13: 13.0 fs
C       -1.863151       -0.086335        0.062797
H       -2.274639        0.242455        0.927613
H       -2.387385        0.383842       -0.598488
H       -1.857336       -1.198534       -0.107239
C        1.832399        0.059777        0.050582
H        2.174603       -0.276767        0.982639
H        2.462374       -0.385457       -0.839643
H        1.747423        1.157456        0.050997
N        0.422457       -0.472817       -0.039142
N       -0.386374        0.501141       -0.088053
10
  Step 14: 14.0 fs
C       -1.860315       -0.083565        0.057958
H       -2.257358        0.261722        0.936018
H       -2.442924        0.395504       -0.547996
H       -1.819657       -1.190689       -0.101879
C        1.837054        0.062418        0.052077
H        2.141199       -0.287324        1.003907
H        2.452537       -0.411821       -0.847538
H        1.738776        1.157790        0.061096
N        0.427048       -0.471719       -0.041082
N       -0.393607        0.495251       -0.089562
10
  Step 15: 15.0 fs
C       -1.852670       -0.083454        0.053648
H       -2.244417        0.283638        0.977954
H       -2.531672        0.433741       -0.546497
H       -1.784476       -1.174912       -0.092690
C        1.841089        0.064730        0.051323
H        2.117467       -0.303427        1.035625
H        2.433115       -0.427237       -0.836506
H        1.736053        1.157950        0.067882
N        0.430512       -0.469298       -0.043074
N       -0.400853        0.487548       -0.090583
10
  Step 16: 16.0 fs
C       -1.842772       -0.083617        0.049370
H       -2.228681        0.301364        1.036875
H       -2.628764        0.478384       -0.568349
H       -1.753919       -1.155950       -0.080817
C        1.844382        0.066363        0.049291
H        2.101796       -0.321292        1.068551
H        2.406676       -0.431578       -0.807952
H        1.739978        1.158377        0.071104
N        0.432677       -0.465671       -0.045172
N       -0.407917        0.478377       -0.091257
10
  Step 17: 17.0 fs
C       -1.832931       -0.081963        0.045216
H       -2.204995        0.309235        1.094993
H       -2.711644        0.513396       -0.593597
H       -1.729608       -1.140548       -0.067708
C        1.846642        0.067177        0.047250
H        2.092430       -0.336907        1.093564
H        2.378174       -0.427290       -0.767542
H        1.750871        1.159342        0.070802
N        0.433478       -0.461056       -0.047405
N       -0.414634        0.468200       -0.091710
10
  Step 18: 18.0 fs
C       -1.824377       -0.077480        0.041650
H       -2.171610        0.304594        1.139795
H       -2.768304        0.531552       -0.612343
H       -1.712768       -1.134480       -0.054660
C        1.847341        0.067397        0.046568
H        2.088085       -0.347292        1.104645
H        2.355151       -0.419970       -0.725657
H        1.768640        1.160830        0.067223
N        0.432949       -0.455748       -0.049782
N       -0.420879        0.457568       -0.092061
10
  Step 19: 19.0 fs
C       -1.817646       -0.070133        0.039069
H       -2.129188        0.287278        1.164330
H       -2.793409        0.530677       -0.620099
H       -1.704420       -1.139333       -0.042505
C        1.845814        0.067574        0.048519
H        2.087937       -0.350831        1.099510
H        2.346527       -0.417560       -0.695592
H        1.792784        1.162616        0.060734
N        0.431219       -0.450102       -0.052294
N       -0.426562        0.447087       -0.092419
10
  Step 20: 20.0 fs
C       -1.812928       -0.060623        0.037675
H       -2.079844        0.258839        1.166061
H       -2.784984        0.511050       -0.614882
H       -1.705381       -1.151673       -0.031696
C        1.841669        0.068188        0.053689
H        2.091554       -0.347348        1.079611
H        2.357895       -0.425786       -0.686322
H        1.822386        1.164453        0.051785
N        0.428505       -0.444504       -0.054919
N       -0.431634        0.437373       -0.092900
10
  Step 21: 21.0 fs
C       -1.810200       -0.050083        0.037446
H       -2.026742        0.222139        1.146579
H       -2.743429        0.474606       -0.596297
H       -1.715935       -1.165308       -0.022605
C        1.835206        0.069216        0.061358
H        2.098992       -0.338233        1.050189
H        2.386407       -0.442957       -0.695174
H        1.856137        1.166167        0.040886
N        0.425093       -0.439349       -0.057621
N       -0.436089        0.429008       -0.093623
10
  Step 22: 22.0 fs
C       -1.809148       -0.039831        0.038143
H       -1.973906        0.181182        1.112324
H       -2.672666        0.425480       -0.566173
H       -1.735490       -1.174350       -0.015729
C        1.827239        0.070318        0.069800
H        2.111016       -0.326518        1.020024
H        2.422664       -0.461860       -0.711229
H        1.892400        1.167456        0.028576
N        0.421307       -0.435011       -0.060351
N       -0.439950        0.422502       -0.094711
10
  Step 23: 23.0 fs
C       -1.808819       -0.031376        0.039438
H       -1.926006        0.140936        1.075863
H       -2.584271        0.372063       -0.531373
H       -1.762553       -1.175066       -0.011663
C        1.818594        0.071286        0.077149
H        2.129021       -0.316312        0.999699
H        2.456754       -0.475499       -0.723861
H        1.929286        1.167658        0.015412
N        0.417478       -0.431806       -0.063041
N       -0.443258        0.418249       -0.096281
10
  Step 24: 24.0 fs
C       -1.807102       -0.026543        0.041453
H       -1.887541        0.106457        1.054482
H       -2.504247        0.330140       -0.509139
H       -1.794904       -1.166561       -0.011023
C        1.809931        0.072090        0.082121
H        2.153816       -0.310737        0.996749
H        2.481542       -0.479833       -0.726576
H        1.964713        1.165919        0.001984
N        0.413901       -0.429964       -0.065613
N       -0.446047        0.416500       -0.098430
10
  Step 25: 25.0 fs
C       -1.801162       -0.027118        0.045318
H       -1.861716        0.081355        1.061946
H       -2.468676        0.320111       -0.525729
H       -1.829920       -1.150773       -0.014346
C        1.801882        0.072657        0.084402
H        2.183732       -0.309779        1.010896
H        2.493002       -0.473695       -0.716825
H        1.996489        1.161602       -0.011079
N        0.410804       -0.429600       -0.067984
N       -0.448304        0.417338       -0.101211
10
  Step 26: 26.0 fs
C       -1.790805       -0.033128        0.051410
H       -1.849961        0.067021        1.098416
H       -2.484402        0.346793       -0.585684
H       -1.864957       -1.132186       -0.022035
C        1.795107        0.072790        0.084512
H        2.214237       -0.310498        1.034742
H        2.489786       -0.458107       -0.695035
H        2.022502        1.154669       -0.023102
N        0.408330       -0.430697       -0.070074
N       -0.449928        0.420676       -0.104610
10
  Step 27: 27.0 fs
C       -1.779070       -0.042521        0.058354
H       -1.852067        0.063066        1.150888
H       -2.521053        0.394117       -0.660386
H       -1.897866       -1.116807       -0.034330
C        1.790124        0.072327        0.083337
H        2.239817       -0.309278        1.059030
H        2.473204       -0.436064       -0.664275
H        2.040913        1.145886       -0.033390
N        0.406533       -0.433106       -0.071820
N       -0.450729        0.426263       -0.108546
10
  Step 28: 28.0 fs
C       -1.768581       -0.053171        0.065230
H       -1.866410        0.067977        1.202569
H       -2.552753        0.446049       -0.723431
H       -1.927283       -1.110069       -0.051301
C        1.787066        0.071304        0.081849
H        2.255974       -0.303519        1.076724
H        2.447797       -0.412759       -0.630683
H        2.050313        1.136800       -0.041320
N        0.405377       -0.436559       -0.073172
N       -0.450520        0.433708       -0.112892
10
  Step 29: 29.0 fs
C       -1.760662       -0.063679        0.071889
H       -1.890500        0.079600        1.240275
H       -2.567985        0.493265       -0.761940
H       -1.952326       -1.114446       -0.072588
C        1.785583        0.070009        0.081043
H        2.260023       -0.292068        1.084025
H        2.421658       -0.395514       -0.603565
H        2.049849        1.129438       -0.046505
N        0.404759       -0.440710       -0.074101
N       -0.449160        0.442520       -0.117492
10
  Step 30: 30.0 fs
C       -1.755907       -0.073317        0.078359
H       -1.921560        0.095538        1.256082
H       -2.563173        0.530739       -0.771232
H       -1.971962       -1.128184       -0.097132
C        1.784982        0.068883        0.081787
H        2.251195       -0.275094        1.080196
H        2.404493       -0.392053       -0.593243
H        2.039294        1.125772       -0.048936
N        0.404531       -0.445159       -0.074590
N       -0.446558        0.452133       -0.122180
10
  Step 31: 31.0 fs
C       -1.754576       -0.081787        0.084522
H       -1.956892        0.113437        1.246686
H       -2.538151        0.555495       -0.750411
H       -1.984804       -1.146345       -0.123125
C        1.784737        0.068198        0.084323
H        2.230611       -0.253970        1.067406
H        2.401790       -0.406084       -0.604890
H        2.019027        1.127085       -0.049056
N        0.404520       -0.449497       -0.074625
N       -0.442674        0.461950       -0.126784
10
  Step 32: 32.0 fs
C       -1.756698       -0.088969        0.090064
H       -1.994103        0.131192        1.212897
H       -2.494662        0.565762       -0.700847
H       -1.989519       -1.163226       -0.148381
C        1.784847        0.067814        0.087836
H        2.201360       -0.231247        1.050945
H        2.410512       -0.433897       -0.633683
H        1.989942        1.133467       -0.047705
N        0.404555       -0.453341       -0.074199
N       -0.437526        0.471385       -0.131128
10
  Step 33: 33.0 fs
C       -1.762001       -0.094825        0.094518
H       -2.031336        0.147171        1.160022
H       -2.436581        0.561287       -0.626646
H       -1.985370       -1.174228       -0.170783
C        1.785545        0.067407        0.090762
H        2.168268       -0.210409        1.039058
H        2.422760       -0.467060       -0.668491
H        1.953366        1.143652       -0.045904
N        0.404494       -0.456368       -0.073307
N       -0.431184        0.479899       -0.135035
10
  Step 34: 34.0 fs
C       -1.769708       -0.099540        0.097404
H       -2.067728        0.160619        1.099093
H       -2.371735        0.545342       -0.537035
H       -1.972563       -1.176709       -0.188697
C        1.786908        0.066779        0.091509
H        2.136681       -0.194958        1.040816
H        2.431576       -0.497315       -0.698532
H        1.911017        1.155312       -0.044583
N        0.404247       -0.458345       -0.071958
N       -0.423782        0.487042       -0.138332
10
  Step 35: 35.0 fs
C       -1.778203       -0.103939        0.098621
H       -2.103849        0.171908        1.046697
H       -2.315254        0.529355       -0.450438
H       -1.952351       -1.170211       -0.201319
C        1.788885        0.065848        0.089150
H        2.110032       -0.186626        1.060733
H        2.433065       -0.518842       -0.716445
H        1.864985        1.165667       -0.044394
N        0.403780       -0.459151       -0.070172
N       -0.415524        0.492493       -0.140849
10
  Step 36: 36.0 fs
C       -1.785075       -0.109688        0.098890
H       -2.141095        0.181831        1.019794
H       -2.289726        0.536041       -0.394080
H       -1.926920       -1.156554       -0.208969
C        1.791436        0.064528        0.083784
H        2.088528       -0.184391        1.094658
H        2.426130       -0.528497       -0.718552
H        1.817690        1.172212       -0.045688
N        0.403111       -0.458790       -0.067984
N       -0.406687        0.496075       -0.142436
10
  Step 37: 37.0 fs
C       -1.788796       -0.117554        0.099002
H       -2.179094        0.189531        1.025560
H       -2.308288        0.581224       -0.384493
H       -1.899011       -1.140326       -0.213246
C        1.794485        0.062733        0.076314
H        2.070434       -0.185421        1.132075
H        2.411900       -0.525512       -0.704455
H        1.771748        1.173257       -0.048591
N        0.402318       -0.457392       -0.065437
N       -0.397621        0.497769       -0.142975
10
  Step 38: 38.0 fs
C       -1.790387       -0.125186        0.098748
H       -2.213797        0.191524        1.056752
H       -2.357435        0.648380       -0.410223
H       -1.871324       -1.128873       -0.216838
C        1.797750        0.060509        0.067963
H        2.054149       -0.186795        1.162103
H        2.393780       -0.511693       -0.677208
H        1.729802        1.168232       -0.053138
N        0.401535       -0.455214       -0.062574
N       -0.388734        0.497704       -0.142393
10
  Step 39: 39.0 fs
C       -1.791704       -0.129383        0.097898
H       -2.239478        0.183817        1.098741
H       -2.415874        0.710366       -0.451556
H       -1.845909       -1.129132       -0.222404
C        1.800651        0.058154        0.060044
H        2.039003       -0.186403        1.177070
H        2.377972       -0.492064       -0.643982
H        1.694288        1.157802       -0.059360
N        0.400934       -0.452614       -0.059443
N       -0.380481        0.496142       -0.140676
10
  Step 40: 40.0 fs
C       -1.793957       -0.128494        0.096549
H       -2.251724        0.164218        1.138069
H       -2.469696        0.750720       -0.495093
H       -1.823870       -1.142686       -0.230879
C        1.802342        0.056218        0.053849
H        2.025179       -0.183096        1.173478
H        2.373296       -0.474741       -0.615662
H        1.667228        1.143893       -0.067348
N        0.400707       -0.450029       -0.056089
N       -0.373323        0.493456       -0.137857
10
  Step 41: 41.0 fs
C       -1.797692       -0.122517        0.094746
H       -2.248462        0.132781        1.165630
H       -2.511578        0.762678       -0.533139
H       -1.805649       -1.163984       -0.240820
C        1.802021        0.055221        0.050315
H        2.013480       -0.176576        1.151860
H        2.387943       -0.467665       -0.602589
H        1.650040        1.129501       -0.077304
N        0.401031       -0.447922       -0.052564
N       -0.367677        0.490075       -0.134006
10
  Step 42: 42.0 fs
C       -1.803044       -0.112365        0.092329
H       -2.229713        0.091300        1.176740
H       -2.537660        0.744527       -0.561007
H       -1.791537       -1.183724       -0.249548
C        1.799501        0.055180        0.049361
H        2.005234       -0.167398        1.116989
H        2.422943       -0.472564       -0.607058
H        1.643389        1.118246       -0.089503
N        0.402041       -0.446725       -0.048922
N       -0.363874        0.486430       -0.129216
10
  Step 43: 43.0 fs
C       -1.809881       -0.099219        0.089002
H       -2.197243        0.042750        1.170661
H       -2.546048        0.697373       -0.575699
H       -1.781796       -1.193673       -0.254815
C        1.795384        0.055563        0.049726
H        2.002359       -0.157032        1.078135
H        2.470010       -0.483597       -0.621790
H        1.647240        1.113375       -0.104200
N        0.403798       -0.446780       -0.045218
N       -0.362134        0.482896       -0.123594
10
  Step 44: 44.0 fs
C       -1.817813       -0.084293        0.084378
H       -2.154431       -0.009120        1.150718
H       -2.536772        0.624898       -0.575829
H       -1.776521       -1.188753       -0.255532
C        1.790544        0.055849        0.049601
H        2.007326       -0.147698        1.048084
H        2.517372       -0.492946       -0.636815
H        1.661042        1.116331       -0.121409
N        0.406265       -0.448284       -0.041503
N       -0.362543        0.479749       -0.117259
10
  Step 45: 45.0 fs
C       -1.826095       -0.068832        0.078084
H       -2.106086       -0.060332        1.124571
H       -2.513244        0.534659       -0.562907
H       -1.775444       -1.167801       -0.251952
C        1.785707        0.055885        0.047492
H        2.022274       -0.141283        1.038009
H        2.555423       -0.495333       -0.645000
H        1.683843        1.125886       -0.140656
N        0.409301       -0.451258       -0.037825
N       -0.365041        0.477140       -0.110343
10
  Step 46: 46.0 fs
C       -1.833396       -0.054274        0.070169
H       -2.057626       -0.107407        1.102820
H       -2.485977        0.440784       -0.544814
H       -1.777718       -1.133669       -0.245541
C        1.781473        0.055769        0.042924
H        2.047225       -0.137809        1.049972
H        2.578238       -0.488676       -0.642955
H        1.714226        1.138589       -0.160920
N        0.412667       -0.455549       -0.034227
N       -0.369432        0.475101       -0.102992
10
  Step 47: 47.0 fs
C       -1.837611       -0.042244        0.061775
H       -2.013651       -0.147882        1.094543
H       -2.476351        0.364555       -0.539514
H       -1.781751       -1.093324       -0.238769
C        1.778432        0.055681        0.036530
H        2.079161       -0.135243        1.075333
H        2.583256       -0.473472       -0.630337
H        1.750196        1.150142       -0.180822
N        0.416044       -0.460860       -0.030751
N       -0.375407        0.473567       -0.095370
10
  Step 48: 48.0 fs
C       -1.836800       -0.033714        0.054742
H       -1.977074       -0.179798        1.102049
H       -2.506475        0.323301       -0.565649
H       -1.785343       -1.057219       -0.234757
C        1.777071        0.055849        0.029469
H        2.113305       -0.131005        1.101463
H        2.571052       -0.452330       -0.609295
H        1.789234        1.156860       -0.198942
N        0.419082       -0.466800       -0.027436
N       -0.382566        0.472412       -0.087646
10
  Step 49: 49.0 fs
C       -1.831453       -0.027903        0.049416
H       -1.949411       -0.201255        1.120705
H       -2.571712        0.314464       -0.617114
H       -1.786414       -1.036654       -0.236677
C        1.777544        0.056603        0.022913
H        2.145115       -0.123270        1.118276
H        2.545835       -0.430092       -0.584617
H        1.828510        1.156605       -0.214108
N        0.421447       -0.472928       -0.024320
N       -0.390437        0.471478       -0.079974
10
  Step 50: 50.0 fs
C       -1.823859       -0.023547        0.044800
H       -1.931406       -0.210580        1.142595
H       -2.646608        0.325161       -0.670208
H       -1.784028       -1.037996       -0.246425
C        1.779534        0.058363        0.017922
H        2.171242       -0.111242        1.120108
H        2.515852       -0.413900       -0.563852
H        1.865243        1.149256       -0.225666
N        0.422870       -0.478798       -0.021434
N       -0.398515        0.470604       -0.072474
10
  Step 51: 51.0 fs
C       -1.815913       -0.020325        0.040150
H       -1.923298       -0.206903        1.160038
H       -2.710157        0.345670       -0.707368
H       -1.778700       -1.058428       -0.263338
C        1.782343        0.061540        0.015394
H        2.189782       -0.095023        1.105361
H        2.491840       -0.412103       -0.556086
H        1.897054        1.136736       -0.233673
N        0.423161       -0.483990       -0.018802
N       -0.406310        0.469649       -0.065240
10
  Step 52: 52.0 fs
C       -1.808703       -0.018724        0.035141
H       -1.924934       -0.190434        1.167379
H       -2.750905        0.370433       -0.720686
H       -1.771748       -1.088214       -0.284487
C        1.785403        0.066229        0.015737
H        2.200288       -0.075472        1.075907
H        2.480972       -0.430279       -0.567302
H        1.922253        1.122635       -0.239021
N        0.422203       -0.488130       -0.016438
N       -0.413390        0.468492       -0.058340
10
  Step 53: 53.0 fs
C       -1.802833       -0.019371        0.029620
H       -1.935845       -0.162436        1.161589
H       -2.763509        0.396197       -0.708005
H       -1.764577       -1.116646       -0.306227
C        1.788750        0.071897        0.018412
H        2.204032       -0.054199        1.037330
H        2.480861       -0.466662       -0.595338
H        1.939980        1.111392       -0.243402
N        0.419960       -0.490908       -0.014336
N       -0.419404        0.467044       -0.051825
10
  Step 54: 54.0 fs
C       -1.798652       -0.022640        0.023463
H       -1.955309       -0.125092        1.142552
H       -2.746050        0.420899       -0.670282
H       -1.758369       -1.135768       -0.325395
C        1.792755        0.077568        0.022015
H        2.204338       -0.033494        0.999228
H        2.482480       -0.513015       -0.631433
H        1.950108        1.106953       -0.248946
N        0.416475       -0.492096       -0.012469
N       -0.424103        0.465252       -0.045731
10
  Step 55: 55.0 fs
C       -1.796275       -0.028573        0.016571
H       -1.982363       -0.081273        1.113125
H       -2.699509        0.443493       -0.611087
H       -1.754089       -1.141352       -0.339807
C        1.797554        0.082373        0.024782
H        2.206323       -0.015998        0.974160
H        2.477366       -0.559682       -0.665931
H        1.952902        1.111122       -0.257518
N        0.411880       -0.491561       -0.010791
N       -0.427343        0.463108       -0.040074
10
  Step 56: 56.0 fs
C       -1.795439       -0.036994        0.008978
H       -2.015788       -0.034330        1.078877
H       -2.629214        0.464834       -0.537655
H       -1.752602       -1.132630       -0.348366
C        1.802991        0.085833        0.025280
H        2.214601       -0.003679        0.972180
H        2.460909       -0.598976       -0.691713
H        1.948723        1.122632       -0.269974
N        0.406391       -0.489283       -0.009244
N       -0.429099        0.460654       -0.034852
10
  Step 57: 57.0 fs
C       -1.795228       -0.047740        0.001128
H       -2.054040        0.012210        1.047015
H       -2.548025        0.490101       -0.462866
H       -1.754786       -1.112206       -0.351267