10
  Step 0: 0.0 fs
C       -1.803709       -0.067737        0.000068
H       -2.311466        0.330634        0.889290
H       -2.311391        0.329988       -0.889451
H       -1.816432       -1.165815        0.000647
C        1.803681        0.067712        0.000034
H        2.310901       -0.329697        0.890032
H        2.312174       -0.330870       -0.888647
H        1.816223        1.165793       -0.000414
N        0.410955       -0.460071       -0.000157
N       -0.410932        0.460086       -0.000139
10
  Step 1: 1.0 fs
C       -1.794146       -0.064627       -0.004707
H       -2.302007        0.297077        0.917519
H       -2.275383        0.355797       -0.886899
H       -1.848140       -1.156822        0.017328
C        1.803052        0.059127       -0.001891
H        2.267964       -0.260750        0.804158
H        2.334025       -0.290871       -0.839824
H        1.826978        1.160636        0.005135
N        0.404236       -0.452244        0.005161
N       -0.412115        0.449391       -0.000863
10
  Step 2: 2.0 fs
C       -1.784958       -0.061550       -0.008807
H       -2.291020        0.265145        0.941216
H       -2.242367        0.382134       -0.885633
H       -1.878126       -1.149884        0.031382
C        1.800096        0.052867       -0.005950
H        2.247651       -0.210779        0.761420
H        2.361318       -0.258152       -0.806112
H        1.836050        1.155619        0.009531
N        0.398219       -0.445291        0.010384
N       -0.413604        0.439477       -0.001569
10
  Step 3: 3.0 fs
C       -1.776523       -0.058621       -0.011736
H       -2.277589        0.236882        0.957064
H       -2.214773        0.409151       -0.886175
H       -1.904832       -1.146049        0.040365
C        1.792908        0.050474       -0.014044
H        2.268625       -0.192236        0.797263
H        2.398377       -0.237832       -0.797917
H        1.841808        1.151519        0.011681
N        0.393621       -0.440074        0.015437
N       -0.415696        0.431113       -0.002248
10
  Step 4: 4.0 fs
C       -1.769213       -0.056008       -0.013275
H       -2.261660        0.214489        0.963593
H       -2.194093        0.436318       -0.887774
H       -1.926858       -1.145163        0.042198
C        1.783101        0.051207       -0.023910
H        2.314799       -0.195495        0.884965
H        2.442992       -0.230539       -0.813450
H        1.842950        1.149622        0.010839
N        0.391007       -0.437321        0.020249
N       -0.418607        0.424931       -0.002907
10
  Step 5: 5.0 fs
C       -1.763374       -0.053876       -0.013513
H       -2.244110        0.200009        0.961401
H       -2.180855        0.462366       -0.888502
H       -1.943006       -1.146174        0.035362
C        1.773652        0.053763       -0.032655
H        2.360704       -0.207298        0.979641
H        2.486276       -0.233474       -0.841109
H        1.838824        1.150699        0.006871
N        0.390686       -0.437496        0.024761
N       -0.422369        0.421311       -0.003556
10
  Step 6: 6.0 fs
C       -1.759268       -0.052356       -0.012783
H       -2.226649        0.195019        0.952981
H       -2.174964        0.485662       -0.886059
H       -1.952398       -1.147651        0.019102
C        1.766549        0.057344       -0.039207
H        2.393067       -0.220568        1.056275
H        2.518366       -0.243083       -0.868289
H        1.829476        1.154576        0.000097
N        0.392665       -0.440713        0.028931
N       -0.426749        0.420313       -0.004208
10
  Step 7: 7.0 fs
C       -1.757043       -0.051526       -0.011564
H       -2.211552        0.200369        0.942260
H       -2.176008        0.504729       -0.878591
H       -1.954602       -1.148248       -0.006440
C        1.762743        0.061530       -0.043427
H        2.407235       -0.231920        1.104537
H        2.532517       -0.256463       -0.886293
H        1.815457        1.160471       -0.009062
N        0.396654       -0.446724        0.032720
N       -0.431265        0.421667       -0.004871
10
  Step 8: 8.0 fs
C       -1.756726       -0.051407       -0.010343
H       -2.201141        0.215941        0.933535
H       -2.183500        0.518654       -0.865324
H       -1.949739       -1.147003       -0.040200
C        1.762525        0.066073       -0.045370
H        2.402224       -0.239450        1.120568
H        2.525753       -0.271553       -0.890681
H        1.797617        1.167372       -0.020266
N        0.402140       -0.454986        0.036082
N       -0.435263        0.424852       -0.005544
10
  Step 9: 9.0 fs
C       -1.758253       -0.051930       -0.009448
H       -2.196964        0.240354        0.929825
H       -2.197000        0.527323       -0.846794
H       -1.938502       -1.143519       -0.080288
C        1.765765        0.070792       -0.045030
H        2.378605       -0.241833        1.103288
H        2.498343       -0.287038       -0.880513
H        1.776971        1.174272       -0.033293
N        0.408484       -0.464774        0.038967
N       -0.438055        0.429201       -0.006219
10
  Step 10: 10.0 fs
C       -1.761515       -0.052914       -0.008932
H       -2.199113        0.270744        0.931535
H       -2.216138        0.531456       -0.824753
H       -1.922100       -1.138073       -0.124225
C        1.771978        0.075558       -0.042282
H        2.338092       -0.238113        1.053637
H        2.453657       -0.302513       -0.858213
H        1.754650        1.180299       -0.048034
N        0.415032       -0.475294        0.041327
N       -0.439041        0.434015       -0.006893
10
  Step 11: 11.0 fs
C       -1.766368       -0.054062       -0.008592
H       -2.206248        0.302939        0.936549
H       -2.240552        0.532433       -0.801758
H       -1.902110       -1.131548       -0.169259
C        1.780259        0.080375       -0.036951
H        2.284259       -0.228024        0.975931
H        2.398434       -0.319001       -0.830273
H        1.731904        1.184744       -0.064435
N        0.421179       -0.485772        0.043122
N       -0.437807        0.438633       -0.007561
10
  Step 12: 12.0 fs
C       -1.772617       -0.055022       -0.008119
H       -2.216260        0.332217        0.941655
H       -2.269709        0.531888       -0.780518
H       -1.880264       -1.125114       -0.212686
C        1.789158        0.085537       -0.029212
H        2.224794       -0.213387        0.882568
H        2.342190       -0.339358       -0.807224
H        1.710102        1.187038       -0.082479
N        0.426409       -0.495524        0.044337
N       -0.434163        0.442498       -0.008224
10
  Step 13: 13.0 fs
C       -1.780020       -0.055456       -0.007289
H       -2.227033        0.354192        0.944166
H       -2.302623        0.531162       -0.763130
H       -1.858253       -1.119713       -0.252050
C        1.796578        0.091837       -0.020699
H        2.175719       -0.201623        0.803657
H        2.294170       -0.367180       -0.800429
H        1.690709        1.186857       -0.101980
N        0.430320       -0.503983        0.044988
N       -0.428145        0.445182       -0.008886
10
  Step 14: 14.0 fs
C       -1.788307       -0.055110       -0.006076
H       -2.236952        0.365526        0.942808
H       -2.337611        0.530846       -0.750558
H       -1.837598       -1.115627       -0.285225
C        1.800244        0.100397       -0.015160
H        2.160527       -0.207542        0.787047
H        2.258477       -0.403210       -0.814499
H        1.675161        1.184405       -0.122437
N        0.432644       -0.510729        0.045127
N       -0.419982        0.446403       -0.009550
10
  Step 15: 15.0 fs
C       -1.797200       -0.053842       -0.004665
H       -2.245135        0.364281        0.937984
H       -2.372316        0.530725       -0.742629
H       -1.819626       -1.112415       -0.310457
C        1.799748        0.110970       -0.014429
H        2.186517       -0.236253        0.846930
H        2.233371       -0.442947       -0.843669
H        1.664525        1.181206       -0.143180
N        0.433272       -0.515490        0.044836
N       -0.410068        0.446040       -0.010220
10
  Step 16: 16.0 fs
C       -1.806413       -0.051638       -0.003413
H       -2.251490        0.350023        0.931712
H       -2.404080        0.530100       -0.738419
H       -1.805464       -1.109237       -0.326454
C        1.797055        0.121144       -0.015956
H        2.234747       -0.271400        0.939970
H        2.215109       -0.479058       -0.876889
H        1.659253        1.180253       -0.163667
N        0.432278       -0.518153        0.044220
N       -0.398924        0.444135       -0.010899
10
  Step 17: 17.0 fs
C       -1.815635       -0.048605       -0.002764
H       -2.256636        0.323736        0.927292
H       -2.430439        0.528246       -0.736728
H       -1.796002       -1.105338       -0.332547
C        1.793955        0.128683       -0.017439
H        2.286911       -0.297695        1.026469
H        2.200886       -0.504906       -0.903963
H        1.659401        1.184266       -0.183373
N        0.429913       -0.518764        0.043402
N       -0.387154        0.440894       -0.011590
10
  Step 18: 18.0 fs
C       -1.824538       -0.044934       -0.003150
H       -2.261628        0.287471        0.928589
H       -2.449589        0.524806       -0.736451
H       -1.791819       -1.100492       -0.328859
C        1.791365        0.132502       -0.018047
H        2.333246       -0.308475        1.087638
H        2.189439       -0.516312       -0.918253
H        1.664915        1.193669       -0.201559
N        0.426560       -0.517533        0.042517
N       -0.375422        0.436673       -0.012297
10
  Step 19: 19.0 fs
C       -1.832817       -0.040843       -0.004833
H       -2.267370        0.243730        0.938614
H       -2.460702        0.520017       -0.736820
H       -1.793097       -1.095251       -0.316411
C        1.789696        0.132438       -0.017623
H        2.368903       -0.301985        1.116315
H        2.180727       -0.511855       -0.916900
H        1.675691        1.205931       -0.217138
N        0.422677       -0.514829        0.041693
N       -0.364424        0.431962       -0.013024
10
  Step 20: 20.0 fs
C       -1.840241       -0.036524       -0.007748
H       -2.273841        0.194811        0.957752
H       -2.464079        0.514772       -0.737546
H       -1.799587       -1.090902       -0.297071
C        1.789141        0.128909       -0.016141
H        2.391212       -0.278570        1.110258
H        2.175593       -0.492613       -0.900331
H        1.691410        1.216695       -0.228810
N        0.418767       -0.511156        0.041046
N       -0.354868        0.427352       -0.013784
10
  Step 21: 21.0 fs
C       -1.846674       -0.032164       -0.011436
H       -2.279820        0.142831        0.982921
H       -2.461117        0.510543       -0.738893
H       -1.810648       -1.089069       -0.273348
C        1.789776        0.122679       -0.013453
H        2.398612       -0.239657        1.069749
H        2.175794       -0.462261       -0.872443
H        1.711317        1.221604       -0.235399
N        0.415327       -0.507103        0.040674
N       -0.347426        0.423477       -0.014594
10
  Step 22: 22.0 fs
C       -1.852035       -0.028010       -0.015170
H       -2.283431        0.090132        1.008685
H       -2.454047        0.509109       -0.741568
H       -1.825361       -1.091020       -0.248044
C        1.791509        0.114752       -0.009260
H        2.390800       -0.187805        0.997919
H        2.184124       -0.427151       -0.840996
H        1.734139        1.217728       -0.236210
N        0.412820       -0.503269        0.040649
N       -0.342678        0.420932       -0.015479
10
  Step 23: 23.0 fs
C       -1.856252       -0.024415       -0.018205
H       -2.283046        0.039649        1.029440
H       -2.445356        0.512092       -0.746308
H       -1.842662       -1.096944       -0.223899
C        1.793923        0.106294       -0.003415
H        2.370484       -0.127593        0.903868
H        2.204154       -0.395361       -0.816842
H        1.758106        1.204461       -0.231334
N        0.411609       -0.500167        0.041018
N       -0.341035        0.420175       -0.016468
10
  Step 24: 24.0 fs
C       -1.859260       -0.021792       -0.020000
H       -2.277850       -0.005286        1.041140
H       -2.437004        0.520318       -0.753190
H       -1.861434       -1.105682       -0.203395
C        1.796019        0.098441        0.003107
H        2.348108       -0.067081        0.809689
H        2.238250       -0.373412       -0.809278
H        1.781016        1.183858       -0.221883
N        0.411912       -0.498122        0.041806
N       -0.342671        0.421431       -0.017576
10
  Step 25: 25.0 fs
C       -1.861035       -0.020505       -0.020352
H       -2.268011       -0.041426        1.042176
H       -2.429820        0.533357       -0.761033
H       -1.880549       -1.115110       -0.188685
C        1.795964        0.091967        0.007171
H        2.347542       -0.017370        0.756135
H        2.284622       -0.362670       -0.819567
H        1.800395        1.160506       -0.210056
N        0.413760       -0.497220        0.043026
N       -0.347492        0.424645       -0.018801
10
  Step 26: 26.0 fs
C       -1.861592       -0.020769       -0.019411
H       -2.254613       -0.066066        1.033568
H       -2.423501        0.549574       -0.767454
H       -1.898899       -1.122918       -0.181537
C        1.792503        0.086714        0.005734
H        2.390081        0.015358        0.774976
H        2.336997       -0.359933       -0.840374
H        1.813856        1.140810       -0.198791
N        0.416968       -0.497302        0.044670
N       -0.355154        0.429487       -0.020122
10
  Step 27: 27.0 fs
C       -1.860953       -0.022617       -0.017608
H       -2.239546       -0.077404        1.018870
H       -2.417154        0.566695       -0.769593
H       -1.915458       -1.127295       -0.183209
C        1.787683        0.081719        0.000050
H        2.459430        0.033961        0.844077
H        2.387581       -0.361008       -0.861641
H        1.819677        1.131012       -0.190741
N        0.421125       -0.498022        0.046687
N       -0.365129        0.435414       -0.021502
10
  Step 28: 28.0 fs
C       -1.859117       -0.025931       -0.015550
H       -2.225243       -0.074757        1.003610
H       -2.409972        0.582567       -0.765084
H       -1.929379       -1.127284       -0.194284
C        1.784526        0.076395       -0.007162
H        2.526037        0.041698        0.924448
H        2.429720       -0.362804       -0.875180
H        1.817316        1.133770       -0.186966
N        0.425686       -0.498943        0.048989
N       -0.376758        0.441776       -0.022899
10
  Step 29: 29.0 fs
C       -1.856057       -0.030484       -0.013857
H       -2.214206       -0.058592        0.993989
H       -2.401690        0.595758       -0.752775
H       -1.940089       -1.122848       -0.214519
C        1.784695        0.070834       -0.014411
H        2.573242        0.040404        0.993306
H        2.458920       -0.363650       -0.876034
H        1.807297        1.146521       -0.186813
N        0.430085       -0.499614        0.051478
N       -0.389321        0.447918       -0.024269
10
  Step 30: 30.0 fs
C       -1.851777       -0.036004       -0.012940
H       -2.208120       -0.030393        0.994394
H       -2.392762        0.605887       -0.733058
H       -1.947355       -1.114770       -0.242798
C        1.788695        0.065553       -0.021058
H        2.594732        0.031553        1.040587
H        2.473087       -0.363144       -0.862581
H        1.790867        1.163120       -0.188813
N        0.433820       -0.499638        0.054053
N       -0.402093        0.453264       -0.025574
10
  Step 31: 31.0 fs
C       -1.846380       -0.042197       -0.012773
H       -2.207007        0.007413        1.004844
H       -2.384314        0.613681       -0.707827
H       -1.951300       -1.104481       -0.277232
C        1.796345        0.061192       -0.026677
H        2.588864        0.016561        1.062056
H        2.472638       -0.362027       -0.836383
H        1.769820        1.176945       -0.191589
N        0.436494       -0.498694        0.056611
N       -0.414381        0.457345       -0.026780
10
  Step 32: 32.0 fs
C       -1.840086       -0.048745       -0.012899
H       -2.209196        0.051368        1.020786
H       -2.377883        0.620725       -0.680040
H       -1.952345       -1.093788       -0.315420
C        1.806981        0.058346       -0.030721
H        2.556045       -0.003157        1.056132
H        2.460928       -0.362415       -0.802531
H        1.746366        1.183018       -0.194305
N        0.437822       -0.496551        0.059056
N       -0.425555        0.459822       -0.027865
10
  Step 33: 33.0 fs
C       -1.833200       -0.055294       -0.012687
H       -2.212183        0.097095        1.035620
H       -2.374921        0.628820       -0.652893
H       -1.951092       -1.084414       -0.354752
C        1.819530        0.057503       -0.032442
H        2.498165       -0.026146        1.023199
H        2.444407       -0.367980       -0.769741
H        1.722943        1.178902       -0.196760
N        0.437634       -0.493077        0.061296
N       -0.435070        0.460484       -0.028816
10
  Step 34: 34.0 fs
C       -1.826070       -0.061473       -0.011646
H       -2.213668        0.139868        1.043745
H       -2.376141        0.639073       -0.628887
H       -1.948183       -1.077435       -0.392629
C        1.832587        0.058992       -0.031144
H        2.419503       -0.050979        0.967030
H        2.431279       -0.383445       -0.748846
H        1.702005        1.164919       -0.199320
N        0.435853       -0.488240        0.063247
N       -0.442488        0.459254       -0.029634
10
  Step 35: 35.0 fs
C       -1.819084       -0.066924       -0.009597
H       -2.212138        0.175338        1.042068
H       -2.381051        0.651198       -0.609273
H       -1.944178       -1.072937       -0.426547
C        1.844651        0.062791       -0.027034
H        2.329191       -0.076842        0.899209
H        2.426880       -0.411677       -0.747236
H        1.685760        1.144125       -0.202757
N        0.432488       -0.482116        0.064828
N       -0.447506        0.456186       -0.030330
10
  Step 36: 36.0 fs
C       -1.812635       -0.071335       -0.006685
H       -2.207047        0.200091        1.030392
H       -2.388026        0.663542       -0.594173
H       -1.939522       -1.070130       -0.454178
C        1.854225        0.068422       -0.022370
H        2.244414       -0.105471        0.847068
H        2.429674       -0.450256       -0.763309
H        1.675917        1.121958       -0.207965
N        0.427634       -0.474888        0.065963
N       -0.449975        0.451473       -0.030931
10
  Step 37: 37.0 fs
C       -1.807060       -0.074486       -0.003301
H       -2.198863        0.211978        1.011293
H       -2.394863        0.673787       -0.583149
H       -1.934562       -1.067843       -0.473545
C        1.860044        0.075237       -0.021070
H        2.185605       -0.143114        0.850294
H        2.433461       -0.492107       -0.787970
H        1.673562        1.105410       -0.215654
N        0.421493       -0.466847        0.066574
N       -0.449922        0.445447       -0.031485
10
  Step 38: 38.0 fs
C       -1.802572       -0.076275        0.000014
H       -2.189032        0.210300        0.989761
H       -2.399468        0.679820       -0.575731
H       -1.929593       -1.065145       -0.483282
C        1.862339        0.082187       -0.024516
H        2.156182       -0.192155        0.917105
H        2.432421       -0.529578       -0.811037
H        1.679168        1.101330       -0.226148
N        0.414391       -0.458396        0.066584
N       -0.447576        0.438585       -0.032058
10
  Step 39: 39.0 fs
C       -1.799222       -0.076725        0.002648
H       -2.179810        0.195781        0.972613
H       -2.400380        0.680337       -0.571650
H       -1.924875       -1.061818       -0.482868
C        1.862467        0.087603       -0.030102
H        2.143662       -0.242837        1.010180
H        2.423228       -0.557149       -0.825206
H        1.692962        1.113457       -0.239089
N        0.406832       -0.450046        0.065947
N       -0.443365        0.431505       -0.032729
10
  Step 40: 40.0 fs
C       -1.796917       -0.075944        0.004047
H       -2.173652        0.170175        0.966950
H       -2.397067        0.675099       -0.570840
H       -1.920608       -1.058595       -0.472781
C        1.861242        0.090424       -0.035289
H        2.138658       -0.284389        1.094691
H        2.404987       -0.571957       -0.826616
H        1.715352        1.139437       -0.253017
N        0.399512       -0.442393        0.064684
N       -0.437898        0.424940       -0.033574
10
  Step 41: 41.0 fs
C       -1.795519       -0.074066        0.003963
H       -2.172000        0.135433        0.977027
H       -2.390037        0.664963       -0.573343
H       -1.916890       -1.057078       -0.454476
C        1.858841        0.090663       -0.038854
H        2.137154       -0.311111        1.153194
H        2.378853       -0.573734       -0.814612
H        1.746642        1.171416       -0.265581
N        0.393252       -0.436093        0.062872
N       -0.431933        0.419696       -0.034668
10
  Step 42: 42.0 fs
C       -1.794950       -0.071219        0.002671
H       -2.174243        0.093105        1.001459
H       -2.380819        0.651748       -0.579267
H       -1.913654       -1.059315       -0.430151
C        1.855170        0.088989       -0.040222
H        2.137538       -0.320916        1.178772
H        2.347910       -0.564956       -0.791770
H        1.786291        1.199908       -0.274376
N        0.388852       -0.431767        0.060618
N       -0.426263        0.416546       -0.036069
10
  Step 43: 43.0 fs
C       -1.795195       -0.067610        0.000912
H       -2.177985        0.044792        1.033471
H       -2.371771        0.637934       -0.588779
H       -1.910627       -1.066931       -0.402254
C        1.850052        0.086321       -0.038898
H        2.139046       -0.313483        1.169322
H        2.317121       -0.551036       -0.764094
H        1.832646        1.217092       -0.277585
N        0.386938       -0.429878        0.058023
N       -0.421582        0.416096       -0.037809
10
  Step 44: 44.0 fs
C       -1.796242       -0.063628       -0.000440
H       -2.180351       -0.007082        1.064254
H       -2.365554        0.625990       -0.601931
H       -1.907311       -1.080105       -0.372950
C        1.843309        0.083613       -0.034332
H        2.141317       -0.289552        1.125673
H        2.292737       -0.539756       -0.740362
H        1.883148        1.218240       -0.274274
N        0.387822       -0.430610        0.055164
N       -0.418348        0.418660       -0.039888
10
  Step 45: 45.0 fs
C       -1.798048       -0.059809       -0.000713
H       -2.179245       -0.059144        1.086356
H       -2.364308        0.617428       -0.618209
H       -1.903045       -1.097112       -0.343923
C        1.834887        0.081587       -0.026262
H        2.144583       -0.251161        1.052408
H        2.280092       -0.538298       -0.728817
H        1.934693        1.202192       -0.264487
N        0.391421       -0.433782        0.052088
N       -0.416693        0.424169       -0.042263
10
  Step 46: 46.0 fs
C       -1.800555       -0.056694        0.000399
H       -2.173767       -0.107563        1.095324
H       -2.368899        0.612083       -0.636042
H       -1.897141       -1.114849       -0.316574
C        1.824999        0.080446       -0.015461
H        2.150738       -0.202906        0.961652
H        2.280335       -0.548560       -0.731973
H        1.984033        1.171467       -0.249387
N        0.397274       -0.438868        0.048815
N       -0.416424        0.432187       -0.044857
10
  Step 47: 47.0 fs
C       -1.803694       -0.054694        0.002825
H       -2.164198       -0.148653        1.090120
H       -2.378769        0.608180       -0.652763
H       -1.889034       -1.129957       -0.292328
C        1.813870        0.079944       -0.004460
H        2.166256       -0.154051        0.880041
H        2.289701       -0.566001       -0.745051
H        2.028211        1.132394       -0.231464
N        0.404666       -0.445106        0.045377
N       -0.417122        0.442017       -0.047567
10
  Step 48: 48.0 fs
C       -1.807346       -0.054032        0.006179
H       -2.151855       -0.179375        1.073070
H       -2.392443        0.603200       -0.665222
H       -1.878374       -1.139849       -0.272739
C        1.801256        0.079684        0.002942
H        2.204221       -0.117340        0.846829
H        2.302360       -0.583602       -0.760026
H        2.065025        1.094457       -0.214509
N        0.412786       -0.451639        0.041831
N       -0.418266        0.452842       -0.050277
10
  Step 49: 49.0 fs
C       -1.811297       -0.054745        0.009852
H       -2.138951       -0.197748        1.049725
H       -2.408276        0.594903       -0.670722
H       -1.865071       -1.143326       -0.259401
C        1.787318        0.078731        0.005112
H        2.270984       -0.098373        0.876932
H        2.313389       -0.595870       -0.770167
H        2.093215        1.068262       -0.202787
N        0.420838       -0.457651        0.038259
N       -0.419362        0.463854       -0.052875
10
  Step 50: 50.0 fs
C       -1.815214       -0.056718        0.013097
H       -2.128355       -0.203108        1.028296
H       -2.424970        0.582007       -0.667678
H       -1.849292       -1.140688       -0.253700
C        1.773931        0.075831        0.004280
H        2.350898       -0.091991        0.940608
H        2.319697       -0.599953       -0.771478
H        2.111850        1.060746       -0.199088
N        0.428078       -0.462476        0.034741
N       -0.420016        0.474354       -0.055268
10
  Step 51: 51.0 fs
C       -1.818695       -0.059738        0.015204
H       -2.122900       -0.196061        1.017753
H       -2.441918        0.564548       -0.656026
H       -1.831455       -1.133521       -0.256495
C        1.763303        0.070588        0.002887
H        2.423860       -0.092640        1.005497
H        2.319993       -0.595307       -0.762443
H        2.119194        1.071151       -0.203301
N        0.433861       -0.465641        0.031347
N       -0.419965        0.483797       -0.057381
10
  Step 52: 52.0 fs
C       -1.821367       -0.063595        0.015818
H       -2.124130       -0.177929        1.023750
H       -2.459351        0.543952       -0.637335
H       -1.812198       -1.124223       -0.267813
C        1.756863        0.063563        0.002091
H        2.478005       -0.097311        1.054789
H        2.314736       -0.583358       -0.743858
H        2.112721        1.092353       -0.213052
N        0.437665       -0.466857        0.028141
N       -0.419056        0.491796       -0.059165
10
  Step 53: 53.0 fs
C       -1.822989       -0.068151        0.015216
H       -2.131251       -0.150290        1.045000
H       -2.478270        0.522789       -0.614550
H       -1.792338       -1.115399       -0.286698
C        1.755216        0.055756        0.002397
H        2.508011       -0.104277        1.081679
H        2.306288       -0.567451       -0.719056
H        2.090512        1.115501       -0.225288
N        0.439133       -0.465997        0.025173
N       -0.417231        0.498119       -0.060593
10
  Step 54: 54.0 fs
C       -1.823478       -0.073315        0.014191
H       -2.141398       -0.115198        1.073870
H       -2.499964        0.504072       -0.591213
H       -1.772810       -1.109202       -0.311264
C        1.758293        0.048234        0.004218
H        2.511821       -0.112263        1.083830
H        2.298901       -0.552718       -0.694000
H        2.052338        1.133318       -0.237391
N        0.438085       -0.463069        0.022484
N       -0.414509        0.502669       -0.061662
10
  Step 55: 55.0 fs
C       -1.822886       -0.078961        0.013607
H       -2.151001       -0.075559        1.100716
H       -2.525012        0.490127       -0.570260
H       -1.754612       -1.106706       -0.338916
C        1.765500        0.041942        0.008019
H        2.489129       -0.120170        1.061167
H        2.297905       -0.545181       -0.676364
H        1.999879        1.141133       -0.247549
N        0.434542       -0.458207        0.020096
N       -0.410984        0.505472       -0.062388
10
  Step 56: 56.0 fs
C       -1.821393       -0.084883        0.014003
H       -2.157008       -0.034942        1.117881
H       -2.552283        0.481645       -0.553086
H       -1.738746       -1.107619       -0.366652
C        1.775973        0.037445        0.014057
H        2.441356       -0.127077        1.015884
H        2.307059       -0.548946       -0.672363
H        1.936464        1.137164       -0.254852
N        0.428718       -0.451674        0.018024
N       -0.406818        0.506674       -0.062808
10
  Step 57: 57.0 fs
C       -1.819287       -0.090801        0.015500
H       -2.157400        0.002967        1.121120
H       -2.578779        0.477587       -0.539546
H       -1.726160       -1.110558       -0.391404