10
  Step 0: 0.0 fs
C       -1.803702       -0.067742        0.000066
H       -2.311486        0.330659        0.889273
H       -2.311365        0.329972       -0.889468
H       -1.816409       -1.165827        0.000662
C        1.803670        0.067708        0.000028
H        2.310879       -0.329680        0.890052
H        2.312197       -0.330887       -0.888627
H        1.816231        1.165785       -0.000427
N        0.410954       -0.460069       -0.000164
N       -0.410931        0.460093       -0.000126
10
  Step 1: 1.0 fs
C       -1.796492       -0.058221        0.001520
H       -2.237575        0.295848        0.836469
H       -2.326771        0.307512       -0.885519
H       -1.894652       -1.207963        0.019771
C        1.803946        0.070302        0.009614
H        2.297942       -0.343222        0.880816
H        2.375093       -0.332320       -0.935598
H        1.824426        1.198244       -0.041886
N        0.401814       -0.456037       -0.003425
N       -0.410971        0.451576        0.002844
10
  Step 2: 2.0 fs
C       -1.788583       -0.051140        0.000753
H       -2.181334        0.276062        0.813825
H       -2.341370        0.287129       -0.882062
H       -1.967745       -1.236540        0.037734
C        1.804722        0.073196        0.017435
H        2.287442       -0.356713        0.875657
H        2.427286       -0.328892       -0.967471
H        1.832337        1.221712       -0.080284
N        0.393491       -0.452595       -0.006763
N       -0.411394        0.443572        0.005653
10
  Step 3: 3.0 fs
C       -1.779713       -0.048074       -0.004045
H       -2.155535        0.282552        0.845826
H       -2.354393        0.270771       -0.878960
H       -2.030669       -1.244764        0.053573
C        1.806189        0.076685        0.022509
H        2.281091       -0.369833        0.877292
H        2.462854       -0.319244       -0.977280
H        1.839662        1.230514       -0.112594
N        0.386763       -0.450324       -0.010242
N       -0.412543        0.436604        0.008142
10
  Step 4: 4.0 fs
C       -1.771164       -0.048844       -0.011472
H       -2.153713        0.310296        0.918133
H       -2.365309        0.260376       -0.875971
H       -2.079290       -1.230838        0.066594
C        1.808445        0.080808        0.024504
H        2.279021       -0.381262        0.885808
H        2.479035       -0.303852       -0.962946
H        1.846065        1.222951       -0.136256
N        0.382284       -0.449709       -0.013916
N       -0.414644        0.431126        0.010173
10
  Step 5: 5.0 fs
C       -1.764698       -0.052367       -0.018566
H       -2.161883        0.346652        0.996979
H       -2.373761        0.257742       -0.872892
H       -2.110631       -1.196402        0.076481
C        1.811559        0.085274        0.023610
H        2.279786       -0.388605        0.898808
H        2.475311       -0.284316       -0.925586
H        1.851173        1.201308       -0.149481
N        0.380489       -0.451045       -0.017825
N       -0.417760        0.427430        0.011645
10
  Step 6: 6.0 fs
C       -1.761434       -0.057580       -0.023363
H       -2.171178        0.382545        1.059127
H       -2.379379        0.264233       -0.869390
H       -2.123205       -1.146294        0.083423
C        1.815481        0.089524        0.020458
H        2.281176       -0.389110        0.912815
H        2.453697       -0.263452       -0.869750
H        1.854577        1.171975       -0.151482
N        0.381527       -0.454380       -0.021987
N       -0.421765        0.425582        0.012512
10
  Step 7: 7.0 fs
C       -1.761783       -0.063372       -0.025072
H       -2.177754        0.413241        1.094012
H       -2.381722        0.280465       -0.864957
H       -2.117792       -1.089745        0.088204
C        1.819821        0.092900        0.016159
H        2.281163       -0.380621        0.924849
H        2.420275       -0.246033       -0.805350
H        1.855885        1.145054       -0.142585
N        0.385251       -0.459489       -0.026402
N       -0.426343        0.425388        0.012759
10
  Step 8: 8.0 fs
C       -1.765571       -0.068211       -0.023584
H       -2.180277        0.436261        1.098016
H       -2.380375        0.306002       -0.858943
H       -2.098440       -1.042230        0.092331
C        1.823625        0.094980        0.012444
H        2.278467       -0.362241        0.933297
H        2.387395       -0.239841       -0.750267
H        1.854769        1.132020       -0.124094
N        0.391260       -0.465914       -0.031048
N       -0.431032        0.426435        0.012392
10
  Step 9: 9.0 fs
C       -1.772203       -0.070169       -0.019142
H       -2.178562        0.450156        1.071055
H       -2.375105        0.339120       -0.850671
H       -2.071997       -1.023757        0.097724
C        1.825517        0.095992        0.011320
H        2.272816       -0.334641        0.938223
H        2.371662       -0.254410       -0.727122
H        1.851081        1.139919       -0.097775
N        0.398978       -0.473051       -0.035881
N       -0.435288        0.428165        0.011421
10
  Step 10: 10.0 fs
C       -1.781077       -0.067910       -0.012100
H       -2.173219        0.454255        1.015763
H       -2.366050        0.376888       -0.839774
H       -2.043744       -1.047072        0.105109
C        1.824820        0.096558        0.013535
H        2.264996       -0.300048        0.941387
H        2.380742       -0.293021       -0.745295
H        1.844958        1.166461       -0.065635
N        0.407730       -0.480249       -0.040824
N       -0.438556        0.429987        0.009863
10
  Step 11: 11.0 fs
C       -1.791887       -0.061971       -0.002861
H       -2.166069        0.449364        0.938809
H       -2.353858        0.415686       -0.826783
H       -2.013425       -1.103728        0.112426
C        1.822280        0.096988        0.017671
H        2.256716       -0.261906        0.945871
H        2.404829       -0.346268       -0.789465
H        1.836804        1.201685       -0.030215
N        0.416830       -0.486899       -0.045783
N       -0.440339        0.431372        0.007743
10
  Step 12: 12.0 fs
C       -1.804170       -0.054421        0.007695
H       -2.161656        0.439936        0.854761
H       -2.339618        0.451922       -0.813513
H       -1.978951       -1.170918        0.116448
C        1.819029        0.097374        0.021721
H        2.250074       -0.224108        0.954941
H        2.429368       -0.400022       -0.836920
H        1.827120        1.234045        0.005359
N        0.425659       -0.492501       -0.050661
N       -0.440269        0.431899        0.005111
10
  Step 13: 13.0 fs
C       -1.816765       -0.047773        0.017634
H       -2.169280        0.437165        0.790002
H       -2.324605        0.482558       -0.802790
H       -1.940584       -1.227761        0.115245
C        1.815803        0.097830        0.024417
H        2.246577       -0.189963        0.970336
H        2.445193       -0.443747       -0.872059
H        1.816337        1.254948        0.037782
N        0.433714       -0.496695       -0.055373
N       -0.438167        0.431279        0.002057
10
  Step 14: 14.0 fs
C       -1.828068       -0.044224        0.024602
H       -2.200367        0.455722        0.773847
H       -2.309998        0.505326       -0.797512
H       -1.900766       -1.261337        0.108573
C        1.813019        0.098416        0.025356
H        2.246282       -0.161565        0.990944
H        2.448446       -0.471484       -0.886955
H        1.804801        1.259922        0.064037
N        0.440616       -0.499284       -0.059841
N       -0.434058        0.429363       -0.001290
10
  Step 15: 15.0 fs
C       -1.837348       -0.044227        0.028318
H       -2.255041        0.495711        0.808591
H       -2.296693        0.518693       -0.799518
H       -1.862677       -1.265781        0.097070
C        1.810960        0.099054        0.024720
H        2.247825       -0.139919        1.013031
H        2.438424       -0.480402       -0.878623
H        1.792815        1.248418        0.081657
N        0.446111       -0.500232       -0.063990
N       -0.428126        0.426161       -0.004766
10
  Step 16: 16.0 fs
C       -1.845109       -0.046391        0.030668
H       -2.319354        0.539873        0.868467
H       -2.285251        0.521686       -0.808742
H       -1.829453       -1.240630        0.081715
C        1.809810        0.099509        0.022988
H        2.249182       -0.125358        1.031949
H        2.416437       -0.469856       -0.847394
H        1.780677        1.223426        0.088914
N        0.450060       -0.499656       -0.067755
N       -0.420664        0.421839       -0.008204
10
  Step 17: 17.0 fs
C       -1.851964       -0.049086        0.033269
H       -2.379276        0.572480        0.928887
H       -2.275948        0.513814       -0.823267
H       -1.803884       -1.190572        0.063809
C        1.809559        0.099452        0.020809
H        2.248472       -0.117862        1.043850
H        2.386081       -0.441704       -0.797298
H        1.768659        1.191382        0.084985
N        0.452432       -0.497813       -0.071078
N       -0.412042        0.416713       -0.011438
10
  Step 18: 18.0 fs
C       -1.858192       -0.050857        0.036784
H       -2.426367        0.585595        0.975698
H       -2.268911        0.495212       -0.840275
H       -1.788047       -1.126806        0.045001
C        1.809846        0.098638        0.019098
H        2.244409       -0.117108        1.046621
H        2.354683       -0.401829       -0.738095
H        1.756904        1.161584        0.070064
N        0.453309       -0.495083       -0.073923
N       -0.402684        0.411227       -0.014317
10
  Step 19: 19.0 fs
C       -1.863892       -0.050051        0.041316
H       -2.456363        0.576513        1.001925
H       -2.264269        0.466936       -0.857130
H       -1.782646       -1.069062        0.027037
C        1.809754        0.097241        0.019252
H        2.236489       -0.122444        1.040231
H        2.335329       -0.362117       -0.687999
H        1.745377        1.144098        0.045254
N        0.452884       -0.491947       -0.076286
N       -0.393066        0.405917       -0.016712
10
  Step 20: 20.0 fs
C       -1.869140       -0.044934        0.046799
H       -2.467325        0.545303        1.004418
H       -2.262257        0.431136       -0.872107
H       -1.786706       -1.041596        0.011146
C        1.807986        0.096004        0.022846
H        2.225077       -0.132947        1.026828
H        2.344293       -0.337641       -0.669622
H        1.734035        1.145121        0.012222
N        0.451464       -0.488943       -0.078195
N       -0.383703        0.401357       -0.018521
10
  Step 21: 21.0 fs
C       -1.873901       -0.035028        0.053115
H       -2.459053        0.494214        0.982888
H       -2.263268        0.390920       -0.884726
H       -1.798885       -1.056336       -0.002064
C        1.804052        0.095460        0.029974
H        2.211480       -0.147636        1.010728
H        2.386544       -0.333553       -0.690187
H        1.723203        1.163291       -0.026872
N        0.449431       -0.486623       -0.079704
N       -0.375146        0.398103       -0.019673
10
  Step 22: 22.0 fs
C       -1.877856       -0.022132        0.059881
H       -2.433818        0.428318        0.941017
H       -2.267743        0.349803       -0.895459
H       -1.818718       -1.100753       -0.011609
C        1.798955        0.095480        0.038509
H        2.197886       -0.165730        0.997874
H        2.447736       -0.340332       -0.732595
H        1.713731        1.190491       -0.069111
N        0.447181       -0.485484       -0.080879
N       -0.367948        0.396629       -0.020119
10
  Step 23: 23.0 fs
C       -1.880319       -0.009207        0.066021
H       -2.398906        0.357090        0.890480
H       -2.275867        0.310896       -0.904762
H       -1.845344       -1.151878       -0.016098
C        1.794028        0.095984        0.045937
H        2.186688       -0.186564        0.993742
H        2.509029       -0.346864       -0.775322
H        1.706715        1.216286       -0.110815
N        0.445049       -0.485896       -0.081787
N       -0.362593        0.397255       -0.019835
10
  Step 24: 24.0 fs
C       -1.880056        0.000918        0.069345
H       -2.369820        0.295098        0.856085
H       -2.287381        0.276534       -0.912203
H       -1.876606       -1.192166       -0.014739
C        1.790160        0.097096        0.050693
H        2.179264       -0.208915        1.000517
H        2.557834       -0.347298       -0.804949
H        1.703055        1.232204       -0.148159
N        0.443245       -0.488031       -0.082487
N       -0.359427        0.400091       -0.018815
10
  Step 25: 25.0 fs
C       -1.875689        0.006275        0.067263
H       -2.365266        0.255895        0.867842
H       -2.301725        0.248525       -0.916606
H       -1.909519       -1.212484       -0.007688
C        1.787898        0.098855        0.052254
H        2.175151       -0.230484        1.015679
H        2.587651       -0.339777       -0.815239
H        1.703198        1.233461       -0.177829
N        0.441821       -0.491829       -0.083026
N       -0.358593        0.405013       -0.017082
10
  Step 26: 26.0 fs
C       -1.867428        0.006539        0.059748
H       -2.385993        0.239907        0.926701
H       -2.318385        0.228523       -0.917120
H       -1.940859       -1.209756        0.004167
C        1.787597        0.101052        0.050807
H        2.172540       -0.248111        1.033512
H        2.595816       -0.324596       -0.804248
H        1.707070        1.219250       -0.197484
N        0.440679       -0.497001       -0.083438
N       -0.360001        0.411670       -0.014704
10
  Step 27: 27.0 fs
C       -1.857093        0.002496        0.049546
H       -2.414233        0.238579        1.002318
H       -2.336987        0.218072       -0.913744
H       -1.967544       -1.184973        0.019603
C        1.789415        0.103246        0.046897
H        2.169426       -0.258666        1.048047
H        2.582305       -0.303344       -0.772869
H        1.714060        1.192666       -0.205976
N        0.439605       -0.503073       -0.083744
N       -0.363355        0.419537       -0.011795
10
  Step 28: 28.0 fs
C       -1.846309       -0.004903        0.039194
H       -2.434708        0.245341        1.067449
H       -2.357064        0.218393       -0.906843
H       -1.987006       -1.142757        0.037356
C        1.793215        0.104828        0.041300
H        2.164386       -0.259851        1.055076
H        2.550175       -0.279107       -0.725174
H        1.723004        1.160899       -0.203514
N        0.438333       -0.509458       -0.083957
N       -0.368228        0.427987       -0.008493
10
  Step 29: 29.0 fs
C       -1.836015       -0.014527        0.030106
H       -2.440078        0.256866        1.108023
H       -2.377749        0.230083       -0.896548
H       -1.997660       -1.092446        0.056229
C        1.798373        0.105193        0.035103
H        2.156857       -0.250616        1.052953
H        2.507519       -0.257365       -0.670280
H        1.732274        1.134561       -0.191626
N        0.436599       -0.515530       -0.084083
N       -0.374148        0.436371       -0.004942
10
  Step 30: 30.0 fs
C       -1.826661       -0.024792        0.022903
H       -2.427944        0.271478        1.118695
H       -2.397637        0.252749       -0.882504
H       -1.999590       -1.049437        0.075252
C        1.803526        0.104109        0.029849
H        2.147198       -0.231384        1.042807
H        2.470112       -0.247177       -0.624770
H        1.740188        1.124723       -0.172622
N        0.434196       -0.520696       -0.084127
N       -0.380659        0.444076       -0.001284
10
  Step 31: 31.0 fs
C       -1.818413       -0.033793        0.017766
H       -2.398285        0.288104        1.098637
H       -2.414895        0.284747       -0.864061
H       -1.994668       -1.032337        0.093849
C        1.806809        0.102107        0.027147
H        2.136677       -0.204093        1.028443
H        2.458106       -0.259371       -0.609131
H        1.745787        1.136647       -0.148549
N        0.430980       -0.524430       -0.084086
N       -0.387352        0.450567        0.002344
10
  Step 32: 32.0 fs
C       -1.811353       -0.040233        0.014651
H       -2.352601        0.305988        1.050120
H       -2.427594        0.323225       -0.840803
H       -1.984783       -1.051818        0.111288
C        1.807317        0.100006        0.027227
H        2.127406       -0.172032        1.015980
H        2.478569       -0.297101       -0.630478
H        1.749299        1.165940       -0.120901
N        0.426873       -0.526310       -0.083948
N       -0.393873        0.455413        0.005813
10
  Step 33: 33.0 fs
C       -1.805596       -0.044334        0.013375
H       -2.294237        0.324892        0.979233
H       -2.434185        0.364594       -0.813264
H       -1.969843       -1.100544        0.125617
C        1.805922        0.098118        0.028383
H        2.121947       -0.139190        1.012364
H        2.516602       -0.350104       -0.673805
H        1.751723        1.201693       -0.091290
N        0.421861       -0.526028       -0.083693
N       -0.399918        0.458313        0.008996
10
  Step 34: 34.0 fs
C       -1.801017       -0.047428        0.013375
H       -2.229892        0.346194        0.898972
H       -2.433893        0.405193       -0.783436
H       -1.948979       -1.159799        0.134150
C        1.803926        0.096439        0.028744
H        2.122231       -0.109016        1.021862
H        2.552894       -0.404284       -0.719015
H        1.754042        1.232625       -0.061922
N        0.416015       -0.523417       -0.083299
N       -0.405236        0.459104        0.011763
10
  Step 35: 35.0 fs
C       -1.796938       -0.051146        0.013266
H       -2.170992        0.375178        0.832623
H       -2.426883        0.441880       -0.754675
H       -1.922530       -1.211793        0.135177
C        1.802189        0.094933        0.027526
H        2.128363       -0.083582        1.043024
H        2.575438       -0.449625       -0.752847
H        1.756871        1.250808       -0.035381
N        0.409506       -0.518458       -0.082755
N       -0.409647        0.457764        0.013990
10
  Step 36: 36.0 fs
C       -1.792429       -0.056981        0.011292
H       -2.129948        0.420429        0.807008
H       -2.414213        0.472356       -0.730936
H       -1.892190       -1.244624        0.128569
C        1.801210        0.093523        0.024934
H        2.138518       -0.063788        1.069168
H        2.578837       -0.480532       -0.768695
H        1.760456        1.252396       -0.014205
N        0.402596       -0.511302       -0.082065
N       -0.413044        0.454417        0.015557
10
  Step 37: 37.0 fs
C       -1.787272       -0.065304        0.007275
H       -2.109475        0.482246        0.828371
H       -2.397508        0.495190       -0.715634
H       -1.860308       -1.252423        0.115251
C        1.801251        0.092046        0.021618
H        2.150050       -0.050082        1.092101
H        2.561639       -0.494371       -0.764142
H        1.764826        1.237355       -0.000580
N        0.395645       -0.502276       -0.081237
N       -0.415422        0.449351        0.016373
10
  Step 38: 38.0 fs
C       -1.782059       -0.074890        0.002973
H       -2.102128        0.546430        0.877247
H       -2.378413        0.509556       -0.710573
H       -1.829341       -1.234727        0.096601
C        1.802354        0.090247        0.018273
H        2.160536       -0.042825        1.105394
H        2.525110       -0.490729       -0.739744
H        1.769894        1.209224        0.003829
N        0.389098       -0.491889       -0.080285
N       -0.416908        0.443038        0.016403
10
  Step 39: 39.0 fs
C       -1.777338       -0.083985        0.000079
H       -2.100602        0.597306        0.931788
H       -2.358176        0.514926       -0.715571
H       -1.801666       -1.196727        0.074287
C        1.804268        0.087810        0.015574
H        2.168232       -0.042264        1.105549
H        2.473652       -0.471939       -0.699528
H        1.775487        1.175055       -0.002000
N        0.383473       -0.480816       -0.079224
N       -0.417778        0.436131        0.015689
10
  Step 40: 40.0 fs
C       -1.773365       -0.090848       -0.000607
H       -2.101070        0.625516        0.978309
H       -2.337639        0.511010       -0.729018
H       -1.779423       -1.150517        0.050299
C        1.806287        0.084574        0.014333
H        2.172220       -0.048405        1.092170
H        2.416674       -0.444933       -0.653121
H        1.781391        1.144623       -0.018402
N        0.379327       -0.469850       -0.078078
N       -0.418423        0.429437        0.014343
10
  Step 41: 41.0 fs
C       -1.770247       -0.093698        0.001097
H       -2.101966        0.626985        1.009474
H       -2.317462        0.497970       -0.748751
H       -1.764143       -1.114858        0.026673
C        1.807083        0.080928        0.015728
H        2.172490       -0.060926        1.067872
H        2.370396       -0.423443       -0.618167
H        1.787422        1.127693       -0.045048
N        0.377199       -0.459815       -0.076876
N       -0.419257        0.423809        0.012513
10
  Step 42: 42.0 fs
C       -1.768068       -0.091158        0.005140
H       -2.102813        0.600744        1.021432
H       -2.298377        0.476710       -0.772743
H       -1.756405       -1.107739        0.004731
C        1.805116        0.077902        0.020875
H        2.170106       -0.079246        1.038256
H        2.352690       -0.423989       -0.615276
H        1.793613        1.129018       -0.080870
N        0.377518       -0.451437       -0.075637
N       -0.420625        0.420019        0.010345
10
  Step 43: 43.0 fs
C       -1.766904       -0.083371        0.011389
H       -2.103828        0.548078        1.012679
H       -2.281287        0.448959       -0.799412
H       -1.755978       -1.132097       -0.015149
C        1.800054        0.076090        0.029186
H        2.167337       -0.102753        1.011640
H        2.366116       -0.450075       -0.648521
H        1.800259        1.145438       -0.123693
N        0.380503       -0.445231       -0.074361
N       -0.422701        0.418623        0.007961
10
  Step 44: 44.0 fs
C       -1.766779       -0.072198        0.019471
H       -2.106129        0.472924        0.984731
H       -2.267103        0.416904       -0.827385
H       -1.762092       -1.173301       -0.032563
C        1.793063        0.075166        0.038070
H        2.167239       -0.130971        0.997010
H        2.395076       -0.488270       -0.700185
H        1.807730        1.167949       -0.169934
N        0.386081       -0.441407       -0.073014
N       -0.425423        0.419859        0.005452
10
  Step 45: 45.0 fs
C       -1.767583       -0.060140        0.028439
H       -2.112692        0.383227        0.944989
H       -2.256438        0.382620       -0.854898
H       -1.773376       -1.212721       -0.046636
C        1.785497        0.074758        0.045028
H        2.171934       -0.163022        0.999150
H        2.423146       -0.523963       -0.750269
H        1.816227        1.186480       -0.215042
N        0.393874       -0.439857       -0.071544
N       -0.428495        0.423630        0.002884
10
  Step 46: 46.0 fs
C       -1.768885       -0.049586        0.036403
H       -2.130127        0.291846        0.911049
H       -2.249499        0.347849       -0.879427
H       -1.787898       -1.237469       -0.056620
C        1.778402        0.074679        0.048884
H        2.180875       -0.196725        1.015088
H        2.440824       -0.548801       -0.786545
H        1.825682        1.193613       -0.254555
N        0.403246       -0.440217       -0.069885
N       -0.431465        0.429576        0.000329
10
  Step 47: 47.0 fs
C       -1.769914       -0.042391        0.040861
H       -2.168219        0.212379        0.907638
H       -2.246321        0.314226       -0.898124
H       -1.803388       -1.241602       -0.062389
C        1.772622        0.074715        0.049561
H        2.191102       -0.228477        1.036115
H        2.443971       -0.559343       -0.803237
H        1.835797        1.185755       -0.284924
N        0.413389       -0.441976       -0.067964
N       -0.433834        0.437187       -0.002114
10
  Step 48: 48.0 fs
C       -1.770344       -0.039214        0.040770
H       -2.230452        0.149363        0.943332
H       -2.247122        0.283622       -0.908954
H       -1.817415       -1.224494       -0.064517
C        1.768819        0.074537        0.047472
H        2.199149       -0.254446        1.053026
H        2.431591       -0.555013       -0.798487
H        1.846166        1.163165       -0.303933
N        0.423432       -0.444577       -0.065707
N       -0.435136        0.445910       -0.004330
10
  Step 49: 49.0 fs
C       -1.770978       -0.039701        0.037684
H       -2.306116        0.099289        0.998139
H       -2.252451        0.258242       -0.911544
H       -1.827611       -1.189658       -0.063998
C        1.767400        0.073723        0.043153
H        2.202495       -0.271603        1.059432
H        2.404854       -0.537224       -0.773185
H        1.856412        1.129891       -0.310883
N        0.432551       -0.447498       -0.063051
N       -0.434985        0.455221       -0.006219
10
  Step 50: 50.0 fs
C       -1.772900       -0.043220        0.033721
H       -2.380211        0.059697        1.047468
H       -2.263062        0.240412       -0.907033
H       -1.832028       -1.144683       -0.061893
C        1.768431        0.071806        0.037267
H        2.200010       -0.278137        1.052552
H        2.367445       -0.509766       -0.731484
H        1.866323        1.093870       -0.306774
N        0.440030       -0.450290       -0.059953
N       -0.433127        0.464655       -0.007706
10
  Step 51: 51.0 fs
C       -1.776707       -0.048846        0.030266
H       -2.442236        0.030400        1.077043
H       -2.279622        0.232186       -0.897399
H       -1.829479       -1.102079       -0.059326
C        1.771471        0.068485        0.030750
H        2.191980       -0.273661        1.033200
H        2.327026       -0.480271       -0.682781
H        1.875933        1.066011       -0.294127
N        0.445304       -0.452572       -0.056393
N       -0.429473        0.473800       -0.008750
10
  Step 52: 52.0 fs
C       -1.782522       -0.055258        0.028041
H       -2.486437        0.011715        1.081182
H       -2.302286        0.234786       -0.884578
H       -1.819623       -1.078219       -0.057665
C        1.775434        0.064031        0.024925
H        2.180068       -0.259298        1.005666
H        2.296712       -0.461688       -0.643805
H        1.885415        1.056863       -0.276033
N        0.447980       -0.454034       -0.052378
N       -0.424101        0.482304       -0.009333
10
  Step 53: 53.0 fs
C       -1.790244       -0.061262        0.027334
H       -2.509971        0.003672        1.058999
H       -2.330242        0.248057       -0.869709
H       -1.802577       -1.085930       -0.058299
C        1.778915        0.059502        0.020987
H        2.167303       -0.237775        0.977654
H        2.291396       -0.468650       -0.634004
H        1.894668        1.070553       -0.254562
N        0.447864       -0.454438       -0.047942
N       -0.417234        0.489882       -0.009453
10
  Step 54: 54.0 fs
C       -1.799709       -0.066669        0.028069
H       -2.511869        0.005913        1.012652
H       -2.361512        0.270266       -0.852975
H       -1.778748       -1.123890       -0.062000
C        1.781328        0.055862        0.018608
H        2.157776       -0.213122        0.959369
H        2.314702       -0.504081       -0.658553
H        1.903028        1.101758       -0.230274
N        0.444961       -0.453635       -0.043133
N       -0.409207        0.496336       -0.009122
10
  Step 55: 55.0 fs
C       -1.810583       -0.072295        0.029772
H       -2.493488        0.017741        0.947919
H       -2.393168        0.298422       -0.834144
H       -1.749610       -1.177131       -0.068683
C        1.783372        0.053169        0.015864
H        2.155240       -0.189414        0.959626
H        2.354591       -0.554356       -0.702467
H        1.909495        1.139330       -0.203376
N        0.439479       -0.451574       -0.038015
N       -0.400453        0.501568       -0.008357
10
  Step 56: 56.0 fs
C       -1.822115       -0.079110        0.031451
H       -2.460590        0.038383        0.876797
H       -2.421920        0.328964       -0.813396
H       -1.718089       -1.228060       -0.077752
C        1.786103        0.051076        0.011211
H        2.160772       -0.168978        0.979887
H        2.396259       -0.602863       -0.747102
H        1.913187        1.172149       -0.174813
N        0.431824       -0.448318       -0.032666
N       -0.391483        0.505587       -0.007182
10
  Step 57: 57.0 fs
C       -1.832917       -0.087765        0.031389
H       -2.426098        0.067926        0.820657
H       -2.444854        0.358474       -0.791822
H       -1.687838       -1.263845       -0.088275