10
  Step 0: 0.0 fs
C       -1.803708       -0.067741        0.000063
H       -2.311487        0.330692        0.889261
H       -2.311361        0.329946       -0.889474
H       -1.816434       -1.165825        0.000689
C        1.803675        0.067712        0.000029
H        2.310882       -0.329691        0.890041
H        2.312182       -0.330871       -0.888643
H        1.816228        1.165788       -0.000407
N        0.410954       -0.460072       -0.000165
N       -0.410927        0.460089       -0.000123
10
  Step 1: 1.0 fs
C       -1.792033       -0.072410        0.005524
H       -2.295167        0.360293        0.838794
H       -2.331644        0.345165       -0.889449
H       -1.790962       -1.172712       -0.048956
C        1.807562        0.082192       -0.012470
H        2.250546       -0.360200        0.930966
H        2.273569       -0.350447       -0.845366
H        1.823803        1.078371        0.000020
N        0.409951       -0.467846        0.003120
N       -0.418233        0.466621        0.003736
10
  Step 2: 2.0 fs
C       -1.780511       -0.077027        0.009540
H       -2.284483        0.390537        0.799725
H       -2.347125        0.357457       -0.885516
H       -1.766749       -1.178045       -0.095537
C        1.810594        0.092892       -0.022919
H        2.190234       -0.385796        0.963557
H        2.245079       -0.376403       -0.816179
H        1.832067        1.034344        0.000337
N        0.408582       -0.474802        0.006244
N       -0.424938        0.472568        0.007537
10
  Step 3: 3.0 fs
C       -1.769329       -0.081571        0.011186
H       -2.283413        0.421413        0.779701
H       -2.354439        0.364927       -0.876103
H       -1.745034       -1.180375       -0.136197
C        1.811983        0.096654       -0.029921
H        2.131681       -0.402613        0.982234
H        2.233928       -0.413942       -0.810784
H        1.842233        1.069523        0.000978
N        0.406577       -0.480225        0.009058
N       -0.430535        0.477448        0.011225
10
  Step 4: 4.0 fs
C       -1.758905       -0.085801        0.010352
H       -2.291615        0.449831        0.779003
H       -2.351957        0.366909       -0.861744
H       -1.726859       -1.179109       -0.168575
C        1.811549        0.094894       -0.033265
H        2.077904       -0.408594        0.985041
H        2.240145       -0.461320       -0.826885
H        1.854574        1.160711        0.000789
N        0.403759       -0.483563        0.011425
N       -0.434639        0.480917        0.014755
10
  Step 5: 5.0 fs
C       -1.749836       -0.089251        0.007594
H       -2.304899        0.469918        0.792093
H       -2.339801        0.363948       -0.844606
H       -1.712938       -1.174854       -0.191041
C        1.809671        0.090705       -0.033752
H        2.032536       -0.403446        0.973410
H        2.257917       -0.509901       -0.852594
H        1.867936        1.260218       -0.002245
N        0.400054       -0.484453        0.013214
N       -0.436993        0.482779        0.018094
10
  Step 6: 6.0 fs
C       -1.742647       -0.091477        0.003745
H       -2.318107        0.475902        0.811929
H       -2.319823        0.357772       -0.828207
H       -1.703603       -1.169267       -0.202764
C        1.806812        0.085798       -0.032631
H        1.999381       -0.388622        0.952120
H        2.280260       -0.550060       -0.875201
H        1.880922        1.338095       -0.009052
N        0.395511       -0.482721        0.014305
N       -0.437477        0.482990        0.021226
10
  Step 7: 7.0 fs
C       -1.737616       -0.092251       -0.000331
H       -2.327165        0.464143        0.832654
H       -2.295406        0.351121       -0.817160
H       -1.698841       -1.164548       -0.203661
C        1.803268        0.080927       -0.031188
H        1.982054       -0.367382        0.929319
H        2.301732       -0.575170       -0.886112
H        1.892405        1.381271       -0.019595
N        0.390293       -0.478400        0.014598
N       -0.436107        0.481662        0.024152
10
  Step 8: 8.0 fs
C       -1.734782       -0.091603       -0.003857
H       -2.329635        0.433561        0.850170
H       -2.270784        0.347178       -0.816372
H       -1.698362       -1.162686       -0.194285
C        1.799184        0.076598       -0.030585
H        1.983391       -0.344186        0.915200
H        2.318857       -0.582073       -0.881154
H        1.901519        1.385058       -0.033465
N        0.384686       -0.471737        0.014036
N       -0.433043        0.479059        0.026885
10
  Step 9: 9.0 fs
C       -1.734049       -0.089764       -0.006314
H       -2.324787        0.385499        0.862185
H       -2.249525        0.348301       -0.829113
H       -1.701671       -1.164685       -0.175752
C        1.794654        0.073184       -0.031564
H        2.004544       -0.322688        0.917691
H        2.329799       -0.570433       -0.859657
H        1.907550        1.349015       -0.050227
N        0.379102       -0.463197        0.012613
N       -0.428591        0.475600        0.029450
10
  Step 10: 10.0 fs
C       -1.735308       -0.087074       -0.007638
H       -2.313629        0.323530        0.868395
H       -2.233007        0.354701       -0.854754
H       -1.708075       -1.170132       -0.149742
C        1.789803        0.070791       -0.034006
H        2.043867       -0.303543        0.937019
H        2.334440       -0.542635       -0.824229
H        1.909916        1.276275       -0.069545
N        0.374086       -0.453456        0.010376
N       -0.423205        0.471853        0.031890
10
  Step 11: 11.0 fs
C       -1.738425       -0.083937       -0.008303
H       -2.299114        0.253307        0.871034
H       -2.220323        0.364238       -0.888265
H       -1.716654       -1.177372       -0.118582
C        1.784774        0.069110       -0.036829
H        2.096558       -0.284632        0.965225
H        2.334975       -0.504366       -0.781195
H        1.908356        1.175966       -0.091227
N        0.370282       -0.443371        0.007404
N       -0.417479        0.468513        0.034264
10
  Step 12: 12.0 fs
C       -1.743141       -0.080797       -0.009151
H       -2.285854        0.181824        0.874845
H       -2.209659        0.373573       -0.922143
H       -1.726218       -1.184250       -0.085279
C        1.779532        0.067102       -0.038371
H        2.155831       -0.263366        0.991541
H        2.336681       -0.465142       -0.740904
H        1.903650        1.069692       -0.115489
N        0.368343       -0.433893        0.003793
N       -0.412091        0.466328        0.036642
10
  Step 13: 13.0 fs
C       -1.749070       -0.078074       -0.011023
H       -2.278789        0.115943        0.885491
H       -2.199791        0.379687       -0.949270
H       -1.735381       -1.188987       -0.053357
C        1.773694        0.062420       -0.036878
H        2.214819       -0.238212        1.007547
H        2.347082       -0.436751       -0.715618
H        1.898773        0.998152       -0.144101
N        0.368832       -0.425930       -0.000366
N       -0.407698        0.465981        0.039102
10
  Step 14: 14.0 fs
C       -1.755872       -0.076052       -0.014324
H       -2.280677        0.060685        0.905655
H       -2.190595        0.380649       -0.964645
H       -1.742742       -1.190695       -0.026437
C        1.767016        0.052616       -0.031152
H        2.267732       -0.208787        1.008709
H        2.371025       -0.427496       -0.712907
H        1.897351        1.001113       -0.180769
N        0.372062       -0.420187       -0.004977
N       -0.404803        0.467941        0.041713
10
  Step 15: 15.0 fs
C       -1.763365       -0.074887       -0.018769
H       -2.290653        0.018985        0.932419
H       -2.183092        0.375951       -0.966262
H       -1.747128       -1.189395       -0.007691
C        1.760420        0.039000       -0.021577
H        2.310326       -0.175776        0.994231
H        2.404951       -0.436869       -0.729778
H        1.897331        1.066126       -0.224706
N        0.377959       -0.417052       -0.009928
N       -0.403640        0.472340        0.044528
10
  Step 16: 16.0 fs
C       -1.771450       -0.074687       -0.023532
H       -2.305365       -0.007712        0.958871
H       -2.179283        0.366562       -0.955377
H       -1.747786       -1.185770        0.000610
C        1.755589        0.025072       -0.009975
H        2.340152       -0.140689        0.966548
H        2.438664       -0.457843       -0.755721
H        1.893575        1.148980       -0.268848
N        0.386045       -0.416521       -0.015080
N       -0.404128        0.478932        0.047571
10
  Step 17: 17.0 fs
C       -1.779944       -0.075573       -0.027581
H       -2.321127       -0.018926        0.977856
H       -2.181951        0.354883       -0.936398
H       -1.744444       -1.180913       -0.002665
C        1.753799        0.013114        0.001632
H        2.357048       -0.105511        0.931148
H        2.462105       -0.482724       -0.780122
H        1.883716        1.219107       -0.306921
N        0.395550       -0.418222       -0.020268
N       -0.405928        0.487149        0.050828
10
  Step 18: 18.0 fs
C       -1.788520       -0.077659       -0.029944
H       -2.335156       -0.015127        0.984348
H       -2.194268        0.344396       -0.916068
H       -1.737276       -1.176170       -0.017494
C        1.755519        0.004143        0.011511
H        2.363782       -0.072367        0.896652
H        2.469061       -0.506036       -0.795872
H        1.867893        1.262762       -0.335598
N        0.405572       -0.421545       -0.025316
N       -0.408542        0.496238        0.054255
10
  Step 19: 19.0 fs
C       -1.796789       -0.080963       -0.029967
H       -2.345828        0.002233        0.976146
H       -2.218686        0.338469       -0.900911
H       -1.726816       -1.172939       -0.042859
C        1.760519       -0.001425        0.018202
H        2.365818       -0.043023        0.873840
H        2.457305       -0.524666       -0.799350
H        1.847332        1.274809       -0.353447
N        0.415212       -0.425792       -0.030052
N       -0.411429        0.505394        0.057777
10
  Step 20: 20.0 fs
C       -1.804444       -0.085311       -0.027606
H       -2.352754        0.030849        0.954125
H       -2.255294        0.338647       -0.893740
H       -1.713903       -1.172247       -0.076943
C        1.768199       -0.003434        0.020697
H        2.368869       -0.018459        0.871995
H        2.427807       -0.537377       -0.789610
H        1.823677        1.254056       -0.360065
N        0.423666       -0.430309       -0.034313
N       -0.414096        0.513877        0.061307
10
  Step 21: 21.0 fs
C       -1.811329       -0.090331       -0.023561
H       -2.356944        0.067872        0.922419
H       -2.300909        0.343800       -0.892196
H       -1.699676       -1.174196       -0.117303
C        1.777979       -0.001846        0.018848
H        2.374805        0.000994        0.893523
H        2.384492       -0.544796       -0.768304
H        1.798827        1.201730       -0.355778
N        0.430275       -0.434552       -0.037959
N       -0.416146        0.521066        0.064756
10
  Step 22: 22.0 fs
C       -1.817374       -0.095596       -0.019063
H       -2.360765        0.110364        0.888051
H       -2.349953        0.350996       -0.890953
H       -1.685588       -1.177642       -0.160966
C        1.789390        0.003285        0.013630
H        2.380303        0.015089        0.932075
H        2.334582       -0.550099       -0.740455
H        1.774961        1.122486       -0.341987
N        0.434538       -0.438111       -0.040875
N       -0.417303        0.526482        0.068043
10
  Step 23: 23.0 fs
C       -1.822494       -0.100768       -0.015440
H       -2.367328        0.155696        0.859402
H       -2.396377        0.357230       -0.885183
H       -1.673328       -1.180529       -0.204570
C        1.801821        0.011550        0.006939
H        2.380041        0.023453        0.976515
H        2.288294       -0.559679       -0.714809
H        1.754421        1.028281       -0.322415
N        0.436138       -0.440699       -0.042968
N       -0.417409        0.529784        0.071096
10
  Step 24: 24.0 fs
C       -1.826647       -0.105603       -0.013652
H       -2.378621        0.201339        0.842690
H       -2.435151        0.360461       -0.872393
H       -1.664570       -1.180789       -0.244673
C        1.814523        0.021352        0.001152
H        2.370191        0.025971        1.016225
H        2.255983       -0.581483       -0.701176
H        1.738792        0.946038       -0.305702
N        0.434950       -0.442138       -0.044175
N       -0.416416        0.530774        0.073857
10
  Step 25: 25.0 fs
C       -1.829962       -0.109818       -0.013990
H       -2.393649        0.243959        0.839054
H       -2.462934        0.359908       -0.852612
H       -1.660669       -1.177284       -0.278207
C        1.827112        0.029297       -0.001599
H        2.349374        0.023126        1.043580
H        2.242823       -0.619043       -0.703487
H        1.727163        0.918421       -0.306130
N        0.431054       -0.442337       -0.044465
N       -0.414384        0.529392        0.076274
10
  Step 26: 26.0 fs
C       -1.832730       -0.113030       -0.016114
H       -2.408690        0.279096        0.845034
H       -2.478238        0.356039       -0.827941
H       -1.662428       -1.170316       -0.302881
C        1.839590        0.033008       -0.000786
H        2.318397        0.015873        1.054774
H        2.246825       -0.666923       -0.716255
H        1.718241        0.965957       -0.331556
N        0.424720       -0.441282       -0.043852
N       -0.411479        0.525705        0.078298
10
  Step 27: 27.0 fs
C       -1.835215       -0.114852       -0.019335
H       -2.419379        0.302278        0.855661
H       -2.481500        0.350529       -0.802137
H       -1.670042       -1.161597       -0.317369
C        1.851601        0.034097        0.001941
H        2.279909        0.005306        1.050123
H        2.262605       -0.714576       -0.729745
H        1.715903        1.055842       -0.371634
N        0.416401       -0.439042       -0.042406
N       -0.407969        0.519915        0.079886
10
  Step 28: 28.0 fs
C       -1.837517       -0.115014       -0.022846
H       -2.422399        0.310218        0.866805
H       -2.475036        0.346160       -0.780221
H       -1.683161       -1.153829       -0.321304
C        1.862529        0.034858        0.004417
H        2.238120       -0.007441        1.034312
H        2.284904       -0.752199       -0.735673
H        1.724741        1.147429       -0.412209
N        0.406721       -0.435789       -0.040252
N       -0.404218        0.512365        0.081008
10
  Step 29: 29.0 fs
C       -1.839541       -0.113443       -0.025872
H       -2.416096        0.301424        0.875894
H       -2.462558        0.346380       -0.767712
H       -1.701070       -1.149914       -0.315114
C        1.871813        0.036363        0.004927
H        2.198266       -0.021282        1.016214
H        2.309761       -0.773318       -0.729173
H        1.746215        1.218004       -0.444739
N        0.396425       -0.431841       -0.037571
N       -0.400673        0.503553        0.081659
10
  Step 30: 30.0 fs
C       -1.841082       -0.110274       -0.027834
H       -2.400582        0.276357        0.882021
H       -2.447860        0.354262       -0.769067
H       -1.722911       -1.151852       -0.299774
C        1.879017        0.038962        0.002260
H        2.165341       -0.035358        1.006714
H        2.334601       -0.775055       -0.708724
H        1.779582        1.257610       -0.465094
N        0.386337       -0.427694       -0.034583
N       -0.397862        0.494127        0.081867
10
  Step 31: 31.0 fs
C       -1.841979       -0.105798       -0.028567
H       -2.377724        0.237449        0.886029
H       -2.432843        0.370906       -0.785345
H       -1.747835       -1.159773       -0.276627
C        1.883943        0.042817       -0.004023
H        2.142038       -0.048857        1.012815
H        2.358120       -0.757800       -0.675706
H        1.823088        1.262398       -0.471467
N        0.377301       -0.423988       -0.031533
N       -0.396357        0.484839        0.081690
10
  Step 32: 32.0 fs
C       -1.842196       -0.100383       -0.028429
H       -2.350972        0.188887        0.890555
H       -2.416725        0.394555       -0.813028
H       -1.774955       -1.171689       -0.247388
C        1.886625        0.048114       -0.013264
H        2.127883       -0.060563        1.032649
H        2.380595       -0.725464       -0.634354
H        1.874431        1.231865       -0.463422
N        0.370110       -0.421420       -0.028670
N       -0.396707        0.476455        0.081208
10
  Step 33: 33.0 fs
C       -1.841766       -0.094443       -0.028143
H       -2.324846        0.136056        0.899639
H       -2.397229        0.421379       -0.845227
H       -1.803182       -1.184206       -0.214310
C        1.887163        0.055055       -0.023875
H        2.120417       -0.068775        1.057262
H        2.404434       -0.685898       -0.591590
H        1.930803        1.169095       -0.441964
N        0.365433       -0.420606       -0.026222
N       -0.399347        0.469636        0.080497
10
  Step 34: 34.0 fs
C       -1.840745       -0.088369       -0.028414
H       -2.303551        0.084375        0.916857
H       -2.372542        0.447145       -0.874338
H       -1.831122       -1.193818       -0.180272
C        1.885542        0.063548       -0.033884
H        2.116925       -0.071881        1.076811
H        2.434095       -0.650014       -0.555644
H        1.989071        1.083946       -0.410568
N        0.363710       -0.421926       -0.024372
N       -0.404487        0.464799        0.079609
10
  Step 35: 35.0 fs
C       -1.839250       -0.082470       -0.029511
H       -2.289252        0.038262        0.942448
H       -2.342412        0.468498       -0.894241
H       -1.857183       -1.197987       -0.148564
C        1.881672        0.072303       -0.041400
H        2.115291       -0.068890        1.084575
H        2.473371       -0.627432       -0.532327
H        2.047106        0.999642       -0.377404
N        0.365081       -0.425399       -0.023255
N       -0.412031        0.462023        0.078557
10
  Step 36: 36.0 fs
C       -1.837472       -0.076974       -0.031117
H       -2.281639        0.001003        0.972203
H       -2.308283        0.483591       -0.901432
H       -1.879808       -1.195628       -0.122472
C        1.875479        0.078173       -0.044915
H        2.114118       -0.059665        1.077846
H        2.520958       -0.620884       -0.521621
H        2.107148        0.955069       -0.356085
N        0.369365       -0.430657       -0.022943
N       -0.421569        0.461040        0.077311
10
  Step 37: 37.0 fs
C       -1.835590       -0.072084       -0.032513
H       -2.278944       -0.024913        0.999501
H       -2.273074        0.492328       -0.895446
H       -1.897718       -1.187144       -0.104815
C        1.867167        0.078620       -0.044063
H        2.112717       -0.044972        1.057895
H        2.569689       -0.626085       -0.518916
H        2.173802        0.975608       -0.355477
N        0.376087       -0.437041       -0.023457
N       -0.432424        0.461314        0.075822
10
  Step 38: 38.0 fs
C       -1.833681       -0.068008       -0.032858
H       -2.279319       -0.037639        1.018353
H       -2.240860        0.496450       -0.878905
H       -1.910057       -1.174228       -0.097631
C        1.858010        0.074952       -0.040244
H        2.111192       -0.026290        1.029980
H        2.610489       -0.636325       -0.518909
H        2.240952        1.039659       -0.368530
N        0.384552       -0.443773       -0.024771
N       -0.443742        0.462169        0.074043
10
  Step 39: 39.0 fs
C       -1.831706       -0.064956       -0.031371
H       -2.281427       -0.036185        1.024917
H       -2.216368        0.499335       -0.857050
H       -1.916456       -1.159552       -0.102015
C        1.849670        0.069783       -0.035413
H        2.110560       -0.005245        1.002783
H        2.636025       -0.645848       -0.517780
H        2.295871        1.111780       -0.384067
N        0.393978       -0.450112       -0.026826
N       -0.454609        0.462933        0.071948
10
  Step 40: 40.0 fs
C       -1.829560       -0.063096       -0.027493
H       -2.284620       -0.020596        1.018015
H       -2.204056        0.505173       -0.836314
H       -1.917040       -1.146276       -0.118093
C        1.843164        0.064726       -0.031126
H        2.112520        0.016907        0.986541
H        2.641985       -0.650910       -0.513502
H        2.330118        1.170494       -0.395856
N        0.403618       -0.455431       -0.029546
N       -0.464163        0.463039        0.069541
10
  Step 41: 41.0 fs
C       -1.827178       -0.062451       -0.021121
H       -2.288958        0.008001        0.999194
H       -2.206578        0.516915       -0.821328
H       -1.912376       -1.137197       -0.145048
C        1.838870        0.060537       -0.028270
H        2.118329        0.039534        0.988511
H        2.627189       -0.649983       -0.505578
H        2.340260        1.206230       -0.401568
N        0.412832       -0.459261       -0.032847
N       -0.471664        0.462082        0.066850
10
  Step 42: 42.0 fs
C       -1.824613       -0.062837       -0.012817
H       -2.295265        0.047506        0.972694
H       -2.223512        0.534348       -0.812414
H       -1.903381       -1.133616       -0.181104
C        1.836827        0.057653       -0.026858
H        2.127445        0.062366        1.008377
H        2.593565       -0.643797       -0.494855
H        2.325597        1.215238       -0.400711
N        0.421098       -0.461295       -0.036643
N       -0.476534        0.459825        0.063918
10
  Step 43: 43.0 fs
C       -1.822019       -0.063953       -0.003724
H       -2.305049        0.095176        0.944948
H       -2.251415        0.554115       -0.806016
H       -1.891242       -1.134537       -0.223458
C        1.836825        0.056527       -0.026124
H        2.137481        0.084835        1.038626
H        2.546508       -0.635801       -0.483711
H        2.286873        1.196649       -0.393681
N        0.428021       -0.461386       -0.040848
N       -0.478388        0.456196        0.060800
10
  Step 44: 44.0 fs
C       -1.819577       -0.065537        0.004825
H       -2.319862        0.147954        0.922780
H       -2.285197        0.571677       -0.797566
H       -1.877371       -1.136970       -0.268353
C        1.838304        0.057707       -0.024927
H        2.145633        0.105722        1.069387
H        2.494850       -0.632366       -0.476107
H        2.226062        1.152044       -0.381627
N        0.433327       -0.459539       -0.045370
N       -0.477047        0.451266        0.057561
10
  Step 45: 45.0 fs
C       -1.817496       -0.067401        0.011811
H       -2.339835        0.202414        0.910260
H       -2.319676        0.583296       -0.783963
H       -1.863330       -1.137303       -0.311509
C        1.840363        0.061557       -0.022135
H        2.149954        0.123449        1.092647
H        2.448880       -0.641427       -0.476741
H        2.147065        1.087308       -0.367034
N        0.436872       -0.455910       -0.050114
N       -0.472550        0.445239        0.054275
10
  Step 46: 46.0 fs
C       -1.816057       -0.069324        0.016802
H       -2.362530        0.254369        0.906904
H       -2.350510        0.586853       -0.764283
H       -1.850682       -1.132844       -0.348850
C        1.842061        0.067360       -0.016841
H        2.149683        0.136626        1.103598
H        2.415263       -0.667264       -0.488016
H        2.056980        1.017585       -0.355442
N        0.438637       -0.450815       -0.054978
N       -0.465139        0.438433        0.051026
10
  Step 47: 47.0 fs
C       -1.815553       -0.071003        0.019866
H       -2.383555        0.298947        0.909098
H       -2.374667        0.581996       -0.739604
H       -1.840815       -1.122686       -0.377148
C        1.842745        0.072483       -0.008411
H        2.145136        0.144544        1.100667
H        2.393612       -0.705507       -0.507378
H        1.965686        0.972060       -0.357587
N        0.438731       -0.444742       -0.059849
N       -0.455253        0.431277        0.047908
10
  Step 48: 48.0 fs
C       -1.816161       -0.072100        0.021337
H       -2.398359        0.331537        0.912964
H       -2.390645        0.570064       -0.712639
H       -1.834825       -1.107953       -0.394388
C        1.842335        0.073771        0.003300
H        2.137553        0.147477        1.085441
H        2.379349       -0.745353       -0.528866
H        1.879787        0.979546       -0.385165
N        0.437398       -0.438372       -0.064617
N       -0.443509        0.424313        0.045029
10
  Step 49: 49.0 fs
C       -1.817842       -0.072326        0.021659
H       -2.403550        0.348701        0.915990
H       -2.398588        0.553910       -0.687371
H       -1.833430       -1.091604       -0.399844
C        1.841208        0.071182        0.016927
H        2.129124        0.146607        1.063265
H        2.368230       -0.776208       -0.546749
H        1.799517        1.031667       -0.435434
N        0.435001       -0.432533       -0.069185
N       -0.430677        0.418170        0.042501
10
  Step 50: 50.0 fs
C       -1.820332       -0.071502        0.021315
H       -2.397437        0.348657        0.917452
H       -2.400225        0.537601       -0.668637
H       -1.836931       -1.077862       -0.393962
C        1.839349        0.067000        0.029832
H        2.122918        0.143818        1.043527
H        2.357890       -0.791133       -0.557119
H        1.726978        1.094922       -0.492509
N        0.432038       -0.428097       -0.073482
N       -0.417647        0.413522        0.040432
10
  Step 51: 51.0 fs
C       -1.823191       -0.069583        0.020740
H       -2.380115        0.331452        0.918291
H       -2.398351        0.525573       -0.661221
H       -1.845200       -1.071186       -0.378018
C        1.836335        0.062928        0.039642
H        2.122142        0.141282        1.037031
H        2.347741       -0.787114       -0.558134
H        1.666716        1.145301       -0.542615
N        0.429119       -0.425861       -0.077468
N       -0.405358        0.411022        0.038909
10
  Step 52: 52.0 fs
C       -1.825927       -0.066668        0.020140
H       -2.353421        0.299027        0.920956
H       -2.395567        0.521110       -0.668207
H       -1.857687       -1.074708       -0.353565
C        1.831803        0.059789        0.045140
H        2.128304        0.140688        1.049455
H        2.338702       -0.764624       -0.550025
H        1.622441        1.172354       -0.578114
N        0.426830       -0.426446       -0.081115
N       -0.394671        0.411184        0.037987
10
  Step 53: 53.0 fs
C       -1.828138       -0.062978        0.019313
H       -2.320699        0.255075        0.929131
H       -2.392806        0.524727       -0.689094
H       -1.873431       -1.088640       -0.321963
C        1.825644        0.058137        0.046503
H        2.139783        0.142616        1.076538
H        2.333239       -0.727571       -0.535331
H        1.596359        1.172847       -0.595389
N        0.425562       -0.430200       -0.084392
N       -0.386207        0.414255        0.037682
10
  Step 54: 54.0 fs
C       -1.829599       -0.058827        0.017690
H       -2.286060        0.204392        0.946828
H       -2.389074        0.533954       -0.719386
H       -1.891061       -1.109867       -0.284430
C        1.817907        0.058610        0.044888
H        2.152653        0.146679        1.107205
H        2.335471       -0.683181       -0.518900
H        1.589522        1.146840       -0.592971
N        0.425399       -0.437141       -0.087258
N       -0.380251        0.420130        0.037964
10
  Step 55: 55.0 fs
C       -1.830273       -0.054551        0.014713
H       -2.252896        0.151709        0.975979
H       -2.382595        0.544723       -0.752159
H       -1.908861       -1.133130       -0.242556
C        1.808648        0.061853        0.041735
H        2.162753        0.152168        1.130397
H        2.350634       -0.640733       -0.506959
H        1.601935        1.096773       -0.570944
N        0.426115       -0.446955       -0.089658
N       -0.376738        0.428345        0.038750
10
  Step 56: 56.0 fs
C       -1.830286       -0.050432        0.010291
H       -2.222576        0.100795        1.013885
H       -2.372217        0.553202       -0.780506
H       -1.924960       -1.152978       -0.198721
C        1.798059        0.068005        0.038257
H        2.166940        0.158467        1.138883
H        2.382431       -0.607470       -0.503905
H        1.632048        1.029082       -0.531777
N        0.427249       -0.459049       -0.091530
N       -0.375315        0.438144        0.039900
10
  Step 57: 57.0 fs
C       -1.829820       -0.046698        0.004915
H       -2.194772        0.054697        1.053494
H       -2.358042        0.556853       -0.799296
H       -1.937595       -1.165254       -0.156007