10
  Step 0: 0.0 fs
C       -1.803705       -0.067740        0.000065
H       -2.311502        0.330684        0.889249
H       -2.311348        0.329966       -0.889490
H       -1.816411       -1.165819        0.000658
C        1.803673        0.067712        0.000026
H        2.310885       -0.329681        0.890040
H        2.312181       -0.330882       -0.888652
H        1.816239        1.165787       -0.000425
N        0.410954       -0.460071       -0.000161
N       -0.410931        0.460087       -0.000120
10
  Step 1: 1.0 fs
C       -1.800339       -0.070362        0.008206
H       -2.314794        0.331619        0.885676
H       -2.357503        0.343546       -0.931405
H       -1.786793       -1.094248        0.013457
C        1.810266        0.070667        0.009617
H        2.338980       -0.420652        0.898000
H        2.313063       -0.352094       -0.898924
H        1.802103        1.213374       -0.030444
N        0.407578       -0.449320       -0.004609
N       -0.415731        0.447503       -0.006187
10
  Step 2: 2.0 fs
C       -1.797717       -0.070400        0.015061
H       -2.318167        0.333639        0.883336
H       -2.394623        0.350818       -0.959304
H       -1.758778       -1.052340        0.025884
C        1.817198        0.073672        0.019138
H        2.360937       -0.502019        0.897742
H        2.311086       -0.369856       -0.904859
H        1.790553        1.247858       -0.056867
N        0.404763       -0.439370       -0.008974
N       -0.420812        0.435978       -0.012227
10
  Step 3: 3.0 fs
C       -1.796340       -0.066064        0.019970
H       -2.321548        0.337453        0.883145
H       -2.417787        0.348700       -0.966581
H       -1.733138       -1.063129        0.037894
C        1.824552        0.076543        0.028345
H        2.373027       -0.566425        0.885340
H        2.304637       -0.381583       -0.903782
H        1.783699        1.262029       -0.076694
N        0.403046       -0.430967       -0.013168
N       -0.426425        0.426514       -0.018215
10
  Step 4: 4.0 fs
C       -1.796453       -0.058375        0.022680
H       -2.324636        0.343280        0.885736
H       -2.424898        0.336308       -0.951364
H       -1.711361       -1.117445        0.049575
C        1.832188        0.079007        0.036941
H        2.373788       -0.609198        0.860486
H        2.293430       -0.385878       -0.895195
H        1.783132        1.253674       -0.087663
N        0.402832       -0.424694       -0.017104
N       -0.432700        0.419910       -0.024130
10
  Step 5: 5.0 fs
C       -1.798023       -0.050041        0.023304
H       -2.326766        0.350741        0.891277
H       -2.416159        0.314429       -0.915359
H       -1.696127       -1.186054        0.060800
C        1.839787        0.080778        0.044660
H        2.363663       -0.628261        0.825644
H        2.278425       -0.382644       -0.880918
H        1.789963        1.224707       -0.088246
N        0.404293       -0.420869       -0.020703
N       -0.439583        0.416625       -0.029956
10
  Step 6: 6.0 fs
C       -1.800823       -0.043282        0.022367
H       -2.326874        0.358867        0.899261
H       -2.394615        0.285518       -0.864448
H       -1.689470       -1.245332        0.071386
C        1.846881        0.081547        0.051284
H        2.344981       -0.624435        0.785820
H        2.261623       -0.373061       -0.864944
H        1.804777        1.181401       -0.077708
N        0.407313       -0.419500       -0.023899
N       -0.446817        0.416719       -0.035677
10
  Step 7: 7.0 fs
C       -1.804327       -0.039476        0.020975
H       -2.323763        0.366402        0.908605
H       -2.367803        0.254282       -0.810832
H       -1.692077       -1.282611        0.081212
C        1.852844        0.080958        0.056571
H        2.322380       -0.602438        0.749027
H        2.245738       -0.359349       -0.852851
H        1.827522        1.135284       -0.056269
N        0.411508       -0.420305       -0.026636
N       -0.453953        0.419905       -0.041281
10
  Step 8: 8.0 fs
C       -1.807570       -0.039558        0.020884
H       -2.316526        0.372205        0.917939
H       -2.348743        0.227855       -0.774124
H       -1.703658       -1.292460        0.090232
C        1.856902        0.078681        0.060105
H        2.303062       -0.571791        0.726453
H        2.233601       -0.344090       -0.850339
H        1.857555        1.102355       -0.025031
N        0.416321       -0.422787       -0.028874
N       -0.460422        0.425667       -0.046762
10
  Step 9: 9.0 fs
C       -1.809540       -0.044072        0.023791
H       -2.304954        0.375613        0.925978
H       -2.350675        0.212897       -0.773305
H       -1.723306       -1.273726        0.098504
C        1.858282        0.074699        0.061225
H        2.295286       -0.544953        0.730122
H        2.227314       -0.329122       -0.860745
H        1.893965        1.096588        0.014748
N        0.421137       -0.426328       -0.030584
N       -0.465620        0.433378       -0.052114
10
  Step 10: 10.0 fs
C       -1.810227       -0.052778        0.029753
H       -2.289733        0.376691        0.931929
H       -2.374500        0.209898       -0.808425
H       -1.749561       -1.228926        0.106279
C        1.856684        0.069516        0.059431
H        2.303378       -0.529787        0.765389
H        2.227654       -0.314764       -0.883045
H        1.935465        1.119257        0.062213
N        0.425387       -0.430289       -0.031752
N       -0.468998        0.442399       -0.057327
10
  Step 11: 11.0 fs
C       -1.810650       -0.064505        0.037118
H       -2.272381        0.376279        0.935695
H       -2.408244        0.213540       -0.860086
H       -1.780345       -1.166121        0.114058
C        1.852734        0.063827        0.055084
H        2.323388       -0.523402        0.824037
H        2.234086       -0.300073       -0.912057
H        1.979403        1.157150        0.115806
N        0.428619       -0.434088       -0.032383
N       -0.470153        0.452124       -0.062385
10
  Step 12: 12.0 fs
C       -1.811796       -0.077250        0.044062
H       -2.254905        0.375819        0.937783
H       -2.439362        0.218299       -0.907835
H       -1.813150       -1.102791        0.122743
C        1.847655        0.058195        0.049257
H        2.346518       -0.517583        0.889380
H        2.245249       -0.283755       -0.940698
H        2.021737        1.193010        0.172268
N        0.430522       -0.437238       -0.032500
N       -0.468894        0.461983       -0.067269
10
  Step 13: 13.0 fs
C       -1.814116       -0.088184        0.049322
H       -2.239323        0.376961        0.939030
H       -2.460335        0.220713       -0.938899
H       -1.845828       -1.067475        0.133897
C        1.842631        0.053035        0.043067
H        2.364963       -0.506413        0.946008
H        2.259504       -0.264948       -0.962480
H        2.058219        1.214183        0.227360
N        0.430928       -0.439369       -0.032147
N       -0.465246        0.471425       -0.071956
10
  Step 14: 14.0 fs
C       -1.817588       -0.094907        0.052190
H       -2.227235        0.381051        0.940279
H       -2.467825        0.219058       -0.947207
H       -1.877549       -1.084279        0.149056
C        1.838512        0.048659        0.037364
H        2.373993       -0.488040        0.983859
H        2.275343       -0.243527       -0.972955
H        2.085356        1.214335        0.276984
N        0.429797       -0.440215       -0.031377
N       -0.459401        0.479941       -0.076421
10
  Step 15: 15.0 fs
C       -1.822061       -0.097704        0.052535
H       -2.219560        0.388653        0.942044
H       -2.461107        0.212807       -0.931118
H       -1.907267       -1.145747        0.167543
C        1.835801        0.045296        0.032750
H        2.371569       -0.463562        0.997861
H        2.291671       -0.220120       -0.970259
H        2.100651        1.192084        0.317748
N        0.427200       -0.439628       -0.030252
N       -0.451647        0.487115       -0.080639
10
  Step 16: 16.0 fs
C       -1.827432       -0.098764        0.050769
H       -2.216385        0.399175        0.944150
H       -2.441624        0.202417       -0.892756
H       -1.932431       -1.222099        0.186590
C        1.834688        0.043067        0.029664
H        2.357679       -0.436001        0.986869
H        2.308055       -0.196000       -0.955253
H        2.102648        1.150108        0.347214
N        0.423306       -0.437575       -0.028837
N       -0.442340        0.492668       -0.084589
10
  Step 17: 17.0 fs
C       -1.833422       -0.099941        0.047754
H       -2.217008        0.410945        0.945649
H       -2.413702        0.189548       -0.839072
H       -1.950631       -1.288176        0.203607
C        1.835023        0.041947        0.028335
H        2.334250       -0.410032        0.953606
H        2.324871       -0.172898       -0.931409
H        2.091054        1.095172        0.364297
N        0.418375       -0.434156       -0.027197
N       -0.431907        0.496475       -0.088255
10
  Step 18: 18.0 fs
C       -1.839331       -0.102324        0.044912
H       -2.220249        0.421821        0.945271
H       -2.386192        0.177909       -0.784296
H       -1.960595       -1.330082        0.216944
C        1.836250        0.041669        0.028601
H        2.305620       -0.392225        0.905634
H        2.343229       -0.152688       -0.904289
H        2.067093        1.039071        0.369997
N        0.412771       -0.429608       -0.025396
N       -0.420858        0.498579       -0.091633
10
  Step 19: 19.0 fs
C       -1.844016       -0.106613        0.044169
H       -2.224877        0.429903        0.942070
H       -2.372426        0.173558       -0.749670
H       -1.961975       -1.341693        0.225646
C        1.837385        0.041711        0.029644
H        2.279076       -0.391242        0.856531
H        2.364538       -0.136933       -0.880333
H        2.033653        0.998685        0.368109
N        0.406956       -0.424315       -0.023493
N       -0.409775        0.499195       -0.094736
10
  Step 20: 20.0 fs
C       -1.846543       -0.113122        0.046952
H       -2.229986        0.434079        0.935906
H       -2.382706        0.181439       -0.751720
H       -1.954948       -1.321712        0.229273
C        1.837326        0.041516        0.030126
H        2.263321       -0.416112        0.823049
H        2.389493       -0.126336       -0.864656
H        1.994270        0.990999        0.364221
N        0.401468       -0.418797       -0.021541
N       -0.399298        0.498696       -0.097594
10
  Step 21: 21.0 fs
C       -1.847125       -0.121326        0.052748
H       -2.235206        0.434284        0.927604
H       -2.413167        0.199364       -0.785413
H       -1.940021       -1.273188        0.227970
C        1.835610        0.040964        0.029281
H        2.262763       -0.470121        0.814237
H        2.417107       -0.120492       -0.859211
H        1.951134        1.021226        0.361795
N        0.396869       -0.413678       -0.019599
N       -0.390079        0.497573       -0.100245
10
  Step 22: 22.0 fs
C       -1.846748       -0.129801        0.059644
H       -2.240700        0.431407        0.918687
H       -2.450014        0.219582       -0.830691
H       -1.918192       -1.205702        0.222794
C        1.832810        0.040414        0.027774
H        2.273180       -0.545013        0.823257
H        2.444461       -0.118103       -0.862401
H        1.905137        1.076632        0.359647
N        0.393670       -0.409604       -0.017728
N       -0.382736        0.496358       -0.102727
10
  Step 23: 23.0 fs
C       -1.846168       -0.136354        0.065787
H       -2.246966        0.426895        0.910912
H       -2.481189        0.234998       -0.869891
H       -1.891136       -1.139575        0.216247
C        1.829914        0.040228        0.026845
H        2.286189       -0.625345        0.835795
H        2.467449       -0.117490       -0.870223
H        1.857918        1.136818        0.354741
N        0.392270       -0.407145       -0.015987
N       -0.377797        0.495537       -0.105071
10
  Step 24: 24.0 fs
C       -1.845687       -0.138163        0.069841
H       -2.254547        0.422180        0.905899
H       -2.499808        0.241294       -0.892904
H       -1.860684       -1.105870        0.212336
C        1.827660        0.040554        0.027285
H        2.295151       -0.696958        0.840940
H        2.482055       -0.117113       -0.878213
H        1.812258        1.185179        0.345177
N        0.392887       -0.406679       -0.014426
N       -0.375611        0.495448       -0.107291
10
  Step 25: 25.0 fs
C       -1.845413       -0.133445        0.071093
H       -2.263786        0.418206        0.904925
H       -2.502914        0.236503       -0.895428
H       -1.827410       -1.125620        0.213729
C        1.826389        0.041370        0.029328
H        2.296655       -0.750369        0.833452
H        2.485419       -0.115843       -0.882981
H        1.771226        1.212064        0.330723
N        0.395498       -0.408316       -0.013096
N       -0.376271        0.496212       -0.109371
10
  Step 26: 26.0 fs
C       -1.845323       -0.123553        0.069605
H       -2.274630        0.415202        0.908732
H       -2.490222        0.220536       -0.877217
H       -1.791549       -1.184285        0.218464
C        1.826124        0.042567        0.032899
H        2.289729       -0.780229        0.812193
H        2.476347       -0.113036       -0.882995
H        1.737600        1.213440        0.312339
N        0.399820       -0.411887       -0.012053
N       -0.379586        0.497717       -0.111270
10
  Step 27: 27.0 fs
C       -1.845103       -0.111393        0.066008
H       -2.286377        0.412534        0.917070
H       -2.464043        0.195039       -0.841925
H       -1.755162       -1.249964        0.222688
C        1.826649        0.043981        0.037764
H        2.275131       -0.784473        0.778845
H        2.455455       -0.108507       -0.878862
H        1.713650        1.189698        0.291891
N        0.405350       -0.417001       -0.011356
N       -0.385135        0.499641       -0.112924
10
  Step 28: 28.0 fs
C       -1.844146       -0.099251        0.061371
H       -2.297630        0.408862        0.928411
H       -2.430301        0.163592       -0.798513
H       -1.721095       -1.299367        0.223963
C        1.827552        0.045393        0.043570
H        2.255242       -0.764260        0.737613
H        2.425018       -0.102495       -0.873280
H        1.700922        1.145579        0.272098
N        0.411437       -0.423133       -0.011063
N       -0.392348        0.501527       -0.114261
10
  Step 29: 29.0 fs
C       -1.841518       -0.088584        0.057318
H       -2.306661        0.402736        0.940276
H       -2.399922        0.131868       -0.763140
H       -1.691682       -1.321050        0.221445
C        1.828265        0.046497        0.049727
H        2.234553       -0.725119        0.695837
H        2.388525       -0.095587       -0.870573
H        1.699802        1.091559        0.256684
N        0.417368       -0.429725       -0.011210
N       -0.400601        0.502890       -0.115215
10
  Step 30: 30.0 fs
C       -1.836143       -0.080320        0.055714
H       -2.311988        0.393239        0.950002
H       -2.386446        0.105959       -0.755515
H       -1.668462       -1.311070        0.215242
C        1.828071        0.046938        0.055225
H        2.220463       -0.678809        0.665004
H        2.349843       -0.088573       -0.875486
H        1.709075        1.044932        0.250278
N        0.422464       -0.436258       -0.011794
N       -0.409265        0.503313       -0.115735
10
  Step 31: 31.0 fs
C       -1.827650       -0.074795        0.057332
H       -2.312837        0.380419        0.955577
H       -2.395699        0.088266       -0.783564
H       -1.652236       -1.270156        0.206077
C        1.826192        0.046496        0.058662
H        2.222612       -0.642061        0.659162
H        2.312034       -0.082160       -0.891015
H        1.726322        1.025861        0.257266
N        0.426165       -0.442291       -0.012766
N       -0.417749        0.502507       -0.115783
10
  Step 32: 32.0 fs
C       -1.816911       -0.071722        0.061017
H       -2.309348        0.365392        0.956228
H       -2.419447        0.076758       -0.834058
H       -1.643027       -1.203558        0.195213
C        1.822127        0.045312        0.059051
H        2.247455       -0.626186        0.686282
H        2.276674       -0.076736       -0.916605
H        1.749732        1.044024        0.279058
N        0.428080       -0.447472       -0.014023
N       -0.425516        0.500345       -0.115327
10
  Step 33: 33.0 fs
C       -1.805285       -0.070290        0.064833
H       -2.302539        0.350191        0.952540
H       -2.444541        0.068848       -0.886370
H       -1.639757       -1.123530        0.184529
C        1.816177        0.043789        0.056812
H        2.291250       -0.626218        0.738618
H        2.244114       -0.072324       -0.948170
H        1.778772        1.088970        0.312037
N        0.427991       -0.451555       -0.015425
N       -0.432110        0.496860       -0.114346
10
  Step 34: 34.0 fs
C       -1.793956       -0.068921        0.067172
H       -2.294070        0.337390        0.946202
H       -2.461503        0.063238       -0.925581
H       -1.639560       -1.053396        0.176734
C        1.809333        0.042399        0.053324
H        2.342715       -0.628398        0.798239
H        2.214211       -0.068682       -0.979707
H        1.812407        1.140113        0.349425
N        0.425829       -0.454401       -0.016820
N       -0.437167        0.492214       -0.112839
10
  Step 35: 35.0 fs
C       -1.783843       -0.065395        0.066951
H       -2.285795        0.329556        0.939472
H       -2.465456        0.059550       -0.944011
H       -1.638151       -1.024761        0.175034
C        1.802647        0.041604        0.049815
H        2.390894       -0.622480        0.849135
H        2.186949       -0.065468       -1.005391
H        1.848270        1.180302        0.384600
N        0.421663       -0.455974       -0.018054
N       -0.440438        0.486666       -0.110822
10
  Step 36: 36.0 fs
C       -1.775448       -0.058784        0.063681
H       -2.279194        0.328632        0.934430
H       -2.454636        0.057920       -0.939024
H       -1.633666       -1.053129        0.180868
C        1.796896        0.041761        0.047017
H        2.428371       -0.604285        0.881380
H        2.162673       -0.062372       -1.020988
H        1.883376        1.199803        0.412680
N        0.415694       -0.456338       -0.018982
N       -0.441788        0.480519       -0.108329
10
  Step 37: 37.0 fs
C       -1.768756       -0.050948        0.057588
H       -2.274769        0.335331        0.932097
H       -2.429633        0.058855       -0.911808
H       -1.629177       -1.119007        0.192027
C        1.792554        0.043092        0.045318
H        2.450920       -0.573739        0.890081
H        2.142124       -0.059230       -1.024587
H        1.914802        1.194827        0.430537
N        0.408247       -0.455643       -0.019473
N       -0.441202        0.474094       -0.105407
10
  Step 38: 38.0 fs
C       -1.763549       -0.044494        0.049508
H       -2.271684        0.348803        0.931794
H       -2.393727        0.063113       -0.867814
H       -1.628566       -1.191632        0.204904
C        1.789837        0.045681        0.044909
H        2.456797       -0.533358        0.874004
H        2.126374       -0.056056       -1.016773
H        1.939948        1.166101        0.436544
N        0.399770       -0.454134       -0.019405
N       -0.438809        0.467719       -0.102111
10
  Step 39: 39.0 fs
C       -1.759454       -0.041035        0.040839
H       -2.268099        0.366990        0.931430
H       -2.354337        0.071792       -0.818700
H       -1.633718       -1.250132        0.216733
C        1.788689        0.049451        0.045804
H        2.446729       -0.487884        0.835300
H        2.116694       -0.053049       -1.000543
H        1.956739        1.118702        0.430614
N        0.390822       -0.452154       -0.018671
N       -0.434897        0.461743       -0.098498
10
  Step 40: 40.0 fs
C       -1.755742       -0.041282        0.033540
H       -2.262035        0.387403        0.928561
H       -2.323966        0.086710       -0.783456
H       -1.644970       -1.283978        0.225694
C        1.788678        0.054112        0.047662
H        2.424920       -0.444835        0.780562
H        2.114313       -0.050556       -0.980867
H        1.963979        1.063170        0.414727
N        0.382071       -0.450140       -0.017178
N       -0.429910        0.456558       -0.094637
10
  Step 41: 41.0 fs
C       -1.751613       -0.045464        0.029472
H       -2.252201        0.407859        0.921444
H       -2.315360        0.110124       -0.781130
H       -1.661920       -1.288770        0.230575
C        1.788807        0.059103        0.049487
H        2.400932       -0.415464        0.722687
H        2.120064       -0.048970       -0.963649
H        1.962000        1.016962        0.393718
N        0.374253       -0.448594       -0.014858
N       -0.424393        0.452604       -0.090604
10
  Step 42: 42.0 fs
C       -1.747167       -0.053368        0.028918
H       -2.238423        0.426914        0.909603
H       -2.329525        0.142129       -0.813596
H       -1.683767       -1.263858        0.230635
C        1.787600        0.063727        0.049644
H        2.389161       -0.413453        0.679545
H        2.133908       -0.048490       -0.953887
H        1.952769        1.001349        0.374560
N        0.368100       -0.448013       -0.011678
N       -0.418902        0.450310       -0.086477
10
  Step 43: 43.0 fs
C       -1.743508       -0.064186        0.030410
H       -2.221681        0.444025        0.893831
H       -2.354364        0.178747       -0.863555
H       -1.709373       -1.212512        0.225757
C        1.784105        0.067571        0.046999
H        2.399445       -0.446793        0.663048
H        2.154598       -0.048923       -0.953921
H        1.938148        1.028195        0.362048
N        0.364229       -0.448802       -0.007663
N       -0.413923        0.450011       -0.082333
10
  Step 44: 44.0 fs
C       -1.741722       -0.076468        0.032156
H       -2.203872        0.459454        0.875822
H       -2.376679        0.214359       -0.911571
H       -1.737306       -1.144594        0.216900
C        1.779026        0.070726        0.042136
H        2.425733       -0.508033        0.668004
H        2.179695       -0.049668       -0.962725
H        1.918119        1.087672        0.354887
N        0.363022       -0.451184       -0.002901
N       -0.409816        0.451834       -0.078241
10
  Step 45: 45.0 fs
C       -1.742341       -0.087905        0.032764
H       -2.187354        0.473972        0.857711
H       -2.388408        0.244291       -0.945246
H       -1.766170       -1.081182        0.206926
C        1.774000        0.073483        0.036445
H        2.452907       -0.579513        0.680258
H        2.205893       -0.049862       -0.976357
H        1.892214        1.157173        0.348571
N        0.364577       -0.455129        0.002467
N       -0.406778        0.455610       -0.074254
10
  Step 46: 46.0 fs
C       -1.745369       -0.095389        0.031209
H       -2.174427        0.488383        0.841637
H       -2.386067        0.265460       -0.958702
H       -1.795537       -1.054013        0.200719
C        1.770331        0.076058        0.030868
H        2.469260       -0.645197        0.688866
H        2.229666       -0.048658       -0.989681
H        1.861119        1.216756        0.339642
N        0.368724       -0.460337        0.008271
N       -0.404821        0.460860       -0.070392
10
  Step 47: 47.0 fs
C       -1.750500       -0.096924        0.026993
H       -2.166912        0.503054        0.829381
H       -2.369124        0.276272       -0.950476
H       -1.825964       -1.082494        0.201506
C        1.768689        0.078514        0.025774
H        2.469219       -0.694683        0.688420
H        2.248019       -0.045448       -0.998356
H        1.826580        1.254251        0.326645
N        0.375078       -0.466288        0.014328
N       -0.403776        0.466869       -0.066647
10
  Step 48: 48.0 fs
C       -1.757439       -0.093696        0.020461
H       -2.165891        0.517572        0.822080
H       -2.339375        0.276636       -0.922789
H       -1.856445       -1.149333        0.206655
C        1.769272        0.080807        0.021247
H        2.451519       -0.722178        0.677217
H        2.258968       -0.039983       -0.999939
H        1.790840        1.263999        0.309601
N        0.383113       -0.472350        0.020454
N       -0.403326        0.472824       -0.062986
10
  Step 49: 49.0 fs
C       -1.765882       -0.088288        0.012607
H       -2.171532        0.530535        0.819852
H       -2.301394        0.268287       -0.882446
H       -1.884248       -1.222095        0.211177
C        1.771944        0.082823        0.017286
H        2.417698       -0.725174        0.655909
H        2.261807       -0.032393       -0.994406
H        1.756311        1.245150        0.289534
N        0.392219       -0.477892        0.026470
N       -0.403099        0.477935       -0.059367
10
  Step 50: 50.0 fs
C       -1.775190       -0.082702        0.004951
H       -2.183156        0.539806        0.821644
H       -2.263771        0.255701       -0.843135
H       -1.907069       -1.277883        0.211728
C        1.776286        0.084382        0.013838
H        2.371704       -0.704177        0.627235
H        2.257172       -0.023166       -0.984194
H        1.725359        1.201393        0.268436
N        0.401766       -0.482376        0.032211
N       -0.402748        0.481523       -0.055743
10
  Step 51: 51.0 fs
C       -1.784323       -0.078265       -0.000494
H       -2.199612        0.543230        0.825515
H       -2.238761        0.246345       -0.825511
H       -1.923682       -1.305355        0.206807
C        1.781589        0.085237        0.010680
H        2.320550       -0.663867        0.596809
H        2.246912       -0.013104       -0.973817
H        1.699956        1.142134        0.249447
N        0.411135       -0.485418        0.037525
N       -0.402006        0.483074       -0.052068
10
  Step 52: 52.0 fs
C       -1.792414       -0.075720       -0.002118
H       -2.219720        0.539379        0.829220
H       -2.235615        0.246567       -0.846243
H       -1.933582       -1.300358        0.196056
C        1.786832        0.085106        0.007176
H        2.275459       -0.615406        0.574706
H        2.233688       -0.003199       -0.968856
H        1.680987        1.084256        0.237103
N        0.419767       -0.486813        0.042282
N       -0.400703        0.482265       -0.048309
10
  Step 53: 53.0 fs
C       -1.799547       -0.074919       -0.000221
H       -2.242555        0.528029        0.830871
H       -2.251425        0.255004       -0.900475
H       -1.936676       -1.263456        0.179928
C        1.790835        0.083834        0.002171
H        2.251035       -0.576302        0.575294
H        2.220227        0.005551       -0.974025
H        1.667679        1.049839        0.236624
N        0.427200       -0.486534        0.046388
N       -0.398765        0.478978       -0.044443
10
  Step 54: 54.0 fs
C       -1.806423       -0.075007        0.003368
H       -2.267537        0.510270        0.829405
H       -2.275041        0.264889       -0.966711
H       -1.933342       -1.200154        0.159635
C        1.792838        0.081509       -0.005268
H        2.257615       -0.559829        0.609002
H        2.208432        0.012353       -0.990921
H        1.658756        1.053693        0.250917
N        0.433114       -0.484727        0.049794
N       -0.396229        0.473297       -0.040455
10
  Step 55: 55.0 fs
C       -1.813508       -0.074725        0.006790
H       -2.294400        0.488328        0.824771
H       -2.296755        0.270717       -1.025056
H       -1.924852       -1.123712        0.137278
C        1.793125        0.078388       -0.014548
H        2.291578       -0.561116        0.669386
H        2.198950        0.016754       -1.017248
H        1.654860        1.090052        0.277129
N        0.437359       -0.481677        0.052501
N       -0.393246        0.465497       -0.036338
10
  Step 56: 56.0 fs
C       -1.820793       -0.072178        0.008692
H       -2.323100        0.465102        0.817883
H       -2.311032        0.269994       -1.063674
H       -1.913736       -1.059131        0.116006
C        1.792674        0.074946       -0.023922
H        2.339662       -0.564770        0.737267
H        2.191329        0.018655       -1.047728
H        1.658108        1.139288        0.307931
N        0.439966       -0.477784        0.054552
N       -0.390077        0.456028       -0.032088
10
  Step 57: 57.0 fs
C       -1.827995       -0.065150        0.008185
H       -2.353680        0.443530        0.810360
H       -2.315350        0.262317       -1.077123
H       -1.902949       -1.037819        0.099009