10
  Step 0: 0.0 fs
C       -1.803705       -0.067740        0.000067
H       -2.311496        0.330684        0.889246
H       -2.311362        0.329949       -0.889464
H       -1.816431       -1.165818        0.000668
C        1.803677        0.067713        0.000030
H        2.310865       -0.329673        0.890058
H        2.312199       -0.330907       -0.888619
H        1.816228        1.165787       -0.000436
N        0.410954       -0.460072       -0.000172
N       -0.410930        0.460089       -0.000119
10
  Step 1: 1.0 fs
C       -1.816338       -0.066153       -0.013755
H       -2.263306        0.308997        0.933200
H       -2.270396        0.299789       -0.844070
H       -1.810654       -1.105195        0.057339
C        1.816439        0.075349       -0.003338
H        2.321056       -0.362974        0.896046
H        2.283092       -0.313589       -0.863013
H        1.833857        1.203079        0.018553
N        0.407690       -0.474081        0.001762
N       -0.414518        0.464029       -0.001471
10
  Step 2: 2.0 fs
C       -1.827409       -0.063868       -0.024627
H       -2.216810        0.289090        0.971643
H       -2.246767        0.281702       -0.824467
H       -1.804929       -1.066442        0.111614
C        1.828460        0.083536       -0.005112
H        2.329140       -0.392507        0.897163
H        2.262105       -0.301300       -0.851111
H        1.850886        1.231079        0.037484
N        0.404269       -0.487204        0.003682
N       -0.417667        0.467349       -0.002938
10
  Step 3: 3.0 fs
C       -1.835611       -0.060595       -0.030102
H       -2.174313        0.273252        0.999682
H       -2.254357        0.285171       -0.852308
H       -1.799073       -1.064560        0.162356
C        1.839159        0.092520       -0.004123
H        2.334087       -0.415362        0.890320
H        2.254834       -0.297597       -0.863119
H        1.866803        1.244040        0.056003
N        0.400583       -0.498693        0.005577
N       -0.420033        0.469534       -0.004631
10
  Step 4: 4.0 fs
C       -1.841060       -0.056447       -0.030510
H       -2.138608        0.263957        1.014646
H       -2.288940        0.305086       -0.916819
H       -1.793505       -1.095379        0.206719
C        1.848439        0.101930       -0.000412
H        2.336094       -0.430039        0.874689
H        2.260342       -0.300779       -0.897172
H        1.881167        1.240320        0.073711
N        0.396597       -0.507968        0.007438
N       -0.421387        0.470196       -0.006649
10
  Step 5: 5.0 fs
C       -1.844701       -0.051926       -0.027870
H       -2.112478        0.263286        1.016397
H       -2.335373        0.328346       -0.987443
H       -1.789434       -1.141623        0.239598
C        1.856545        0.110867        0.004902
H        2.336495       -0.436663        0.851725
H        2.272788       -0.304792       -0.941014
H        1.893613        1.222450        0.090376
N        0.392360       -0.514632        0.009255
N       -0.421629        0.469081       -0.009083
10
  Step 6: 6.0 fs
C       -1.847242       -0.047760       -0.023843
H       -2.098288        0.272551        1.006919
H       -2.381228        0.345580       -1.040932
H       -1.788134       -1.186277        0.256653
C        1.863676        0.118272        0.010388
H        2.337625       -0.437096        0.824962
H        2.286024       -0.303457       -0.981105
H        1.903903        1.197078        0.106070
N        0.387993       -0.518476        0.011017
N       -0.420784        0.466076       -0.012011
10
  Step 7: 7.0 fs
C       -1.849022       -0.044581       -0.019472
H       -2.097768        0.292332        0.989805
H       -2.419220        0.352514       -1.065777
H       -1.790474       -1.217917        0.256029
C        1.869805        0.123181        0.014793
H        2.342535       -0.434770        0.799500
H        2.295864       -0.292874       -1.008056
H        1.911930        1.174156        0.121253
N        0.383686       -0.519472        0.012715
N       -0.418978        0.461216       -0.015485
10
  Step 8: 8.0 fs
C       -1.850202       -0.042806       -0.015458
H       -2.111754        0.322522        0.969262
H       -2.445341        0.347833       -1.057925
H       -1.796917       -1.230201        0.238164
C        1.874756        0.124919        0.017208
H        2.354221       -0.433758        0.780651
H        2.300119       -0.271523       -1.017211
H        1.917661        1.163763        0.136684
N        0.379686       -0.517782        0.014347
N       -0.416421        0.454702       -0.019522
10
  Step 9: 9.0 fs
C       -1.850906       -0.042617       -0.012225
H       -2.139799        0.362027        0.948499
H       -2.457521        0.331834       -1.017804
H       -1.807621       -1.220542        0.205193
C        1.878364        0.123385        0.017237
H        2.374258       -0.436910        0.771697
H        2.298177       -0.239806       -1.007973
H        1.920950        1.170446        0.152954
N        0.376301       -0.513748        0.015923
N       -0.413398        0.446896       -0.024106
10
  Step 10: 10.0 fs
C       -1.851262       -0.043902       -0.009803
H       -2.179730        0.408237        0.928246
H       -2.455521        0.306211       -0.949937
H       -1.822461       -1.190060        0.160669
C        1.880592        0.119153        0.015187
H        2.401608       -0.444280        0.772111
H        2.290928       -0.199831       -0.983739
H        1.921458        1.190155        0.169991
N        0.373889       -0.507889        0.017467
N       -0.410275        0.438324       -0.029191
10
  Step 11: 11.0 fs
C       -1.851296       -0.046200       -0.007659
H       -2.227516        0.456764        0.906940
H       -2.442313        0.274891       -0.864914
H       -1.840964       -1.144768        0.109511
C        1.881476        0.113233        0.012112
H        2.432734       -0.453321        0.777960
H        2.281139       -0.155376       -0.952758
H        1.918786        1.213253        0.187065
N        0.372848       -0.500875        0.019011
N       -0.407486        0.429642       -0.034721
10
  Step 12: 12.0 fs
C       -1.850637       -0.048699       -0.004535
H       -2.277881        0.502112        0.882575
H       -2.426914        0.245549       -0.782705
H       -1.862305       -1.097615        0.057783
C        1.880980        0.106692        0.009606
H        2.462981       -0.460628        0.783950
H        2.273577       -0.111377       -0.928146
H        1.912699        1.230099        0.203316
N        0.373588       -0.493458        0.020599
N       -0.405508        0.421573       -0.040651
10
  Step 13: 13.0 fs
C       -1.848308       -0.050404        0.001442
H       -2.325494        0.539009        0.854527
H       -2.425411        0.229649       -0.731909
H       -1.885624       -1.067632        0.011453
C        1.878979        0.100374        0.009245
H        2.488196       -0.463636        0.785550
H        2.273485       -0.072191       -0.923810
H        1.903168        1.234253        0.218193
N        0.376479       -0.486395        0.022275
N       -0.404805        0.414812       -0.046941
10
  Step 14: 14.0 fs
C       -1.843621       -0.050440        0.011374
H       -2.366012        0.563653        0.824047
H       -2.449155        0.235360       -0.731827
H       -1.910509       -1.070381       -0.025572
C        1.875528        0.094712        0.011688
H        2.505550       -0.461314        0.779947
H        2.282693       -0.039402       -0.944964
H        1.890362        1.223158        0.231622
N        0.381768       -0.480317        0.024091
N       -0.405729        0.409902       -0.053550
10
  Step 15: 15.0 fs
C       -1.837578       -0.048557        0.023981
H       -2.396674        0.574382        0.793783
H       -2.488421        0.259068       -0.772716
H       -1.936573       -1.104149       -0.051729
C        1.871012        0.089766        0.016223
H        2.513968       -0.454340        0.766485
H        2.297465       -0.012046       -0.983229
H        1.874598        1.198038        0.244010
N        0.389505       -0.475641        0.026093
N       -0.408400        0.407140       -0.060407
10
  Step 16: 16.0 fs
C       -1.831993       -0.045453        0.036805
H       -2.416498        0.571781        0.767022
H       -2.523651        0.290862       -0.830961
H       -1.962482       -1.151749       -0.066161
C        1.865887        0.085406        0.021382
H        2.514272       -0.445007        0.746642
H        2.311512        0.011223       -1.023925
H        1.856324        1.163701        0.256213
N        0.399484       -0.472514        0.028316
N       -0.412664        0.406538       -0.067405
10
  Step 17: 17.0 fs
C       -1.828075       -0.042240        0.047849
H       -2.426341        0.558448        0.747356
H       -2.541582        0.322608       -0.888407
H       -1.986193       -1.194664       -0.068343
C        1.860389        0.081422        0.025707
H        2.509148       -0.436956        0.723782
H        2.319642        0.031075       -1.054777
H        1.836076        1.128088        0.269532
N        0.411241       -0.470832        0.030765
N       -0.418121        0.407834       -0.074410
10
  Step 18: 18.0 fs
C       -1.826233       -0.039895        0.055820
H       -2.428717        0.538491        0.738551
H       -2.536771        0.349390       -0.934686
H       -2.005780       -1.220538       -0.058496
C        1.854498        0.077569        0.028040
H        2.502672       -0.434570        0.702468
H        2.318853        0.047690       -1.068576
H        1.814416        1.100812        0.285606
N        0.424099       -0.470307        0.033415
N       -0.424193        0.410567       -0.081264
10
  Step 19: 19.0 fs
C       -1.826391       -0.039065        0.059918
H       -2.426974        0.516561        0.744032
H       -2.508355        0.368407       -0.964084
H       -2.019822       -1.223470       -0.037650
C        1.848097        0.073754        0.027687
H        2.498756       -0.441557        0.686786
H        2.308099        0.061114       -1.062744
H        1.792019        1.089200        0.305830
N        0.437250       -0.470559        0.036215
N       -0.430215        0.414169       -0.087799
10
  Step 20: 20.0 fs
C       -1.828321       -0.039976        0.059770
H       -2.423545        0.496184        0.765377
H       -2.457932        0.378059       -0.973350
H       -2.027461       -1.202560       -0.007508
C        1.841164        0.070210        0.024621
H        2.499027       -0.459133        0.678333
H        2.287994        0.071442       -1.038699
H        1.769925        1.094068        0.330278
N        0.449837       -0.471197        0.039095
N       -0.435516        0.418063       -0.093846
10
  Step 21: 21.0 fs
C       -1.831818       -0.042317        0.055505
H       -2.418380        0.478537        0.800773
H       -2.389007        0.377653       -0.961196
H       -2.028532       -1.161720        0.029656
C        1.833830        0.067440        0.019614
H        2.501819       -0.485243        0.675420
H        2.260972        0.078914       -1.002224
H        1.749700        1.109408        0.357301
N        0.461035       -0.471881        0.041980
N       -0.439488        0.421725       -0.099243
10
  Step 22: 22.0 fs
C       -1.836636       -0.045201        0.047832
H       -2.409107        0.462769        0.844778
H       -2.307424        0.367743       -0.929263
H       -2.023860       -1.110735        0.071209
C        1.826242        0.065938        0.014147
H        2.503332       -0.515530        0.674238
H        2.231685        0.084034       -0.964331
H        1.733151        1.126352        0.384180
N        0.470113       -0.472336        0.044803
N       -0.441620        0.424708       -0.103838
10
  Step 23: 23.0 fs
C       -1.842195       -0.047336        0.038102
H       -2.392900        0.447558        0.890036
H       -2.222551        0.351368       -0.885186
H       -2.015506       -1.065944        0.114781
C        1.818425        0.065985        0.010079
H        2.499778       -0.545173        0.670850
H        2.206678        0.087632       -0.940389
H        1.721876        1.137336        0.408229
N        0.476470       -0.472358        0.047507
N       -0.441525        0.426652       -0.107494
10
  Step 24: 24.0 fs
C       -1.847422       -0.047679        0.028454
H       -2.368139        0.432405        0.929328
H       -2.148020        0.336020       -0.847132
H       -2.006115       -1.045808        0.159046
C        1.810393        0.067636        0.008909
H        2.488870       -0.570326        0.662501
H        2.191527        0.090684       -0.943341
H        1.716961        1.137750        0.427432
N        0.479671       -0.471821        0.050055
N       -0.438956        0.427301       -0.110093
10
  Step 25: 25.0 fs
C       -1.851120       -0.046462        0.021656
H       -2.334987        0.418001        0.957002
H       -2.098552        0.332975       -0.842261
H       -1.996953       -1.058653        0.202828
C        1.802450        0.070778        0.010859
H        2.470223       -0.588718        0.648035
H        2.186624        0.093874       -0.973502
H        1.718874        1.126346        0.440824
N        0.479472       -0.470686        0.052423
N       -0.433830        0.426525       -0.111553
10
  Step 26: 26.0 fs
C       -1.852754       -0.044927        0.019345
H       -2.295266        0.406023        0.970010
H       -2.080850        0.347527       -0.884279
H       -1.987116       -1.095828        0.242856
C        1.795170        0.075160        0.014817
H        2.445367       -0.599941        0.627950
H        2.187151        0.097452       -1.018059
H        1.727468        1.105172        0.448686
N        0.475838       -0.469007        0.054599
N       -0.426266        0.424339       -0.111846
10
  Step 27: 27.0 fs
C       -1.852562       -0.043859        0.020399
H       -2.252107        0.398734        0.968454
H       -2.090288        0.371162       -0.954823
H       -1.975158       -1.140901        0.274333
C        1.789028        0.080374        0.019189
H        2.417558       -0.605516        0.604227
H        2.187261        0.101498       -1.061171
H        1.742060        1.079524        0.452663
N        0.468970       -0.466931        0.056580
N       -0.416644        0.420903       -0.111030
10
  Step 28: 28.0 fs
C       -1.850846       -0.043559        0.022543
H       -2.209615        0.398794        0.955759
H       -2.118501        0.391626       -1.025109
H       -1.960400       -1.179828        0.293358
C        1.784180        0.085862        0.022544
H        2.391338       -0.608701        0.579993
H        2.182872        0.106118       -1.091268
H        1.761581        1.057353        0.455701
N        0.459331       -0.464710        0.058387
N       -0.405613        0.416538       -0.109254
10
  Step 29: 29.0 fs
C       -1.847674       -0.044301        0.023941
H       -2.172281        0.408995        0.937991
H       -2.158198        0.401329       -1.075570
H       -1.943025       -1.203720        0.297995
C        1.780505        0.091050        0.023825
H        2.371586       -0.613714        0.558785
H        2.171935        0.111462       -1.102199
H        1.784864        1.046994        0.461238
N        0.447635       -0.462708        0.060078
N       -0.394033        0.411734       -0.106749
10
  Step 30: 30.0 fs
C       -1.843028       -0.046318        0.023411
H       -2.143969        0.431541        0.921725
H       -2.203662        0.397075       -1.096532
H       -1.923777       -1.208194        0.288134
C        1.777796        0.095580        0.022543
H        2.361777       -0.623804        0.543129
H        2.153987        0.117682       -1.092335
H        1.810858        1.052710        0.471356
N        0.434815       -0.461410        0.061752
N       -0.382898        0.407155       -0.103794
10
  Step 31: 31.0 fs
C       -1.836999       -0.049578        0.020433
H       -2.126633        0.466406        0.910394
H       -2.250266        0.378188       -1.084507
H       -1.903681       -1.192543        0.265145
C        1.775937        0.099421        0.018964
H        2.362545       -0.639297        0.533402
H        2.129936        0.124931       -1.064274
H        1.838408        1.071760        0.485321
N        0.421944       -0.461399        0.063552
N       -0.373248        0.403592       -0.100693
10
  Step 32: 32.0 fs
C       -1.829861       -0.053577        0.015136
H       -2.119810        0.510079        0.902373
H       -2.294247        0.345548       -1.040205
H       -1.883893       -1.160004        0.231812
C        1.774933        0.102720        0.014133
H        2.371642       -0.657241        0.527791
H        2.102259        0.133407       -1.025592
H        1.865937        1.096077        0.500092
N        0.410087       -0.463263        0.065630
N       -0.366040        0.401850       -0.097749
10
  Step 33: 33.0 fs
C       -1.821974       -0.057273        0.008146
H       -2.121313        0.556096        0.892794
H       -2.333062        0.301658       -0.968619
H       -1.865569       -1.119078        0.192502
C        1.774768        0.105563        0.009709
H        2.385370       -0.672982        0.523390
H        2.075139        0.143446       -0.989684
H        1.891564        1.116820        0.512188
N        0.400130       -0.467447        0.068122
N       -0.361999        0.402584       -0.095231
10
  Step 34: 34.0 fs
C       -1.813553       -0.059295        0.000451
H       -2.128365        0.597228        0.877261
H       -2.366889        0.251467       -0.880916
H       -1.849610       -1.084070        0.153002
C        1.775315        0.107887        0.007532
H        2.400251       -0.682314        0.517453
H        2.053576        0.155569       -0.973328
H        1.913470        1.127557        0.519124
N        0.392629       -0.474082        0.071097
N       -0.361485        0.406117       -0.093346
10
  Step 35: 35.0 fs
C       -1.804389       -0.058481       -0.006520
H       -2.138362        0.627428        0.854064
H       -2.401329        0.202963       -0.796384
H       -1.836263       -1.071187        0.119396
C        1.776480        0.109538        0.008732
H        2.413958       -0.682694        0.508073
H        2.040425        0.170158       -0.987069
H        1.930181        1.125188        0.519870
N        0.387705       -0.482869        0.074540
N       -0.364418        0.412330       -0.092229
10
  Step 36: 36.0 fs
C       -1.793840       -0.054708       -0.011098
H       -2.149275        0.643054        0.824610
H       -2.447602        0.165056       -0.738225
H       -1.824841       -1.087824        0.095885
C        1.778365        0.110355        0.012875
H        2.425640       -0.673730        0.494493
H        2.034087        0.186781       -1.025634
H        1.940741        1.110100        0.515000
N        0.385100       -0.493118        0.078356
N       -0.370320        0.420690       -0.091943
10
  Step 37: 37.0 fs
C       -1.781714       -0.048985       -0.012591
H       -2.159876        0.643296        0.792914
H       -2.511878        0.141516       -0.717823
H       -1.814100       -1.125756        0.083746
C        1.781078        0.110188        0.018379
H        2.435989       -0.657234        0.477158
H        2.030519        0.204084       -1.072813
H        1.944841        1.086113        0.506623
N        0.384318       -0.503884        0.082391
N       -0.378422        0.430395       -0.092483
10
  Step 38: 38.0 fs
C       -1.769182       -0.042675       -0.011986
H       -2.170047        0.630137        0.764674
H       -2.583900        0.129257       -0.726742
H       -1.802967       -1.168546        0.082293
C        1.784487        0.108848        0.023491
H        2.447117       -0.636982        0.457588
H        2.026326        0.220482       -1.112879
H        1.942869        1.060107        0.498166
N        0.384777       -0.514140        0.086469
N       -0.387784        0.440535       -0.093780
10
  Step 39: 39.0 fs
C       -1.757932       -0.037039       -0.010815
H       -2.180897        0.607650        0.746030
H       -2.646271        0.123682       -0.750289
H       -1.790918       -1.201558        0.089969
C        1.788196        0.106114        0.026804
H        2.462096       -0.617975        0.437996
H        2.019715        0.234705       -1.135747
H        1.935745        1.040776        0.493824
N        0.385941       -0.522951        0.090421
N       -0.397455        0.450253       -0.095723
10
  Step 40: 40.0 fs
C       -1.749183       -0.033077       -0.010208
H       -2.194285        0.580623        0.742153
H       -2.686230        0.121821       -0.777826
H       -1.777900       -1.215667        0.104852
C        1.791739        0.101899        0.027453
H        2.483780       -0.604836        0.420540
H        2.010134        0.245991       -1.136890
H        1.924378        1.034887        0.496894
N        0.387377       -0.529582        0.094108
N       -0.406576        0.458862       -0.098180
10
  Step 41: 41.0 fs
C       -1.743622       -0.031360       -0.010707
H       -2.211414        0.552488        0.755297
H       -2.697316        0.122159       -0.803195
H       -1.764141       -1.207155        0.124897
C        1.794826        0.096422        0.025271
H        2.512974       -0.599741        0.406369
H        1.997821        0.254086       -1.116257
H        1.909181        1.043195        0.507880
N        0.388738       -0.533521        0.097424
N       -0.414429        0.465863       -0.101016
10
  Step 42: 42.0 fs
C       -1.741678       -0.031922       -0.012313
H       -2.231390        0.524063        0.783374
H       -2.677315        0.123960       -0.822852
H       -1.750042       -1.176997        0.148127
C        1.797443        0.090170        0.020841
H        2.547311       -0.601471        0.395213
H        1.983675        0.259346       -1.078193
H        1.890250        1.059814        0.524166
N        0.389753       -0.534468        0.100301
N       -0.420460        0.470945       -0.104107
10
  Step 43: 43.0 fs
C       -1.743616       -0.034265       -0.014641
H       -2.251284        0.494296        0.820544
H       -2.626898        0.126877       -0.834819
H       -1.736089       -1.131063        0.172927
C        1.799727        0.083639        0.015410
H        2.581950       -0.606457        0.385805
H        1.969370        0.263052       -1.032441
H        1.868002        1.075889        0.541673
N        0.390222       -0.532316        0.102701
N       -0.424289        0.473959       -0.107333
10
  Step 44: 44.0 fs
C       -1.749381       -0.037415       -0.017133
H       -2.267692        0.462136        0.859595
H       -2.549868        0.130852       -0.839010
H       -1.722730       -1.080920        0.198528
C        1.801770        0.077118        0.010675
H        2.611551       -0.610841        0.376754
H        1.957365        0.267688       -0.994361
H        1.843500        1.083764        0.556746
N        0.390012       -0.527121        0.104620
N       -0.425717        0.474884       -0.110584
10
  Step 45: 45.0 fs
C       -1.758381       -0.040112       -0.019121
H       -2.278200        0.427742        0.893958
H       -2.454602        0.136344       -0.838945
H       -1.710144       -1.042781        0.225377
C        1.803546        0.070700        0.008292
H        2.631891       -0.611924        0.367102
H        1.950190        0.276404       -0.980498
H        1.818319        1.078781        0.567024
N        0.389065       -0.519087        0.106081
N       -0.424721        0.473807       -0.113753
10
  Step 46: 46.0 fs
C       -1.769351       -0.041415       -0.019578
H       -2.282016        0.392657        0.918628
H       -2.355470        0.144925       -0.844654
H       -1.698230       -1.031007        0.254167
C        1.805011        0.064472        0.008893
H        2.640727       -0.608777        0.356562
H        1.948811        0.290809       -0.997414
H        1.794241        1.059716        0.571734
N        0.387405       -0.508565        0.107133
N       -0.421437        0.470907       -0.116728
10
  Step 47: 47.0 fs
C       -1.780618       -0.041485       -0.016995
H       -2.280047        0.359527        0.930640
H       -2.269468        0.159235       -0.871976
H       -1.687282       -1.048435        0.283193
C        1.806153        0.058682        0.011557
H        2.638117       -0.602365        0.345591
H        1.951921        0.309162       -1.035599
H        1.773014        1.028743        0.571755
N        0.385164       -0.496051        0.107855
N       -0.416147        0.466470       -0.119398
10
  Step 48: 48.0 fs
C       -1.791018       -0.041419       -0.010446
H       -2.274671        0.331728        0.929507
H       -2.205328        0.180179       -0.929371
H       -1.678550       -1.085375        0.307498
C        1.806895        0.053618        0.014559
H        2.626413       -0.595433        0.335304
H        1.957305        0.327750       -1.078184
H        1.756141        0.991338        0.569614
N        0.382603       -0.482199        0.108359
N       -0.409272        0.460908       -0.121665
10
  Step 49: 49.0 fs
C       -1.800302       -0.042254       -0.000982
H       -2.269541        0.313046        0.917922
H       -2.159330        0.203884       -1.004424
H       -1.673688       -1.128167        0.321620
C        1.807024        0.049400        0.016252
H        2.609868       -0.592089        0.327265
H        1.963195        0.343263       -1.111114
H        1.744708        0.955717        0.569343
N        0.380122       -0.467806        0.108789
N       -0.401386        0.454768       -0.123467
10
  Step 50: 50.0 fs
C       -1.808357       -0.044640        0.009141
H       -2.269206        0.307327        0.901782
H       -2.125168        0.224466       -1.075169
H       -1.673999       -1.165710        0.322117
C        1.806272        0.045991        0.015429
H        2.593373       -0.596763        0.323055
H        1.968537        0.353681       -1.126063
H        1.739348        0.930755        0.575521
N        0.378241       -0.453800        0.109324
N       -0.393231        0.448744       -0.124822
10
  Step 51: 51.0 fs
C       -1.814832       -0.048987        0.017884
H       -2.278062        0.317675        0.888142
H       -2.099711        0.237704       -1.125207
H       -1.680269       -1.190747        0.308031
C        1.804501        0.043383        0.011531
H        2.580210       -0.612358        0.323546
H        1.972852        0.358202       -1.119785
H        1.740529        0.921740        0.590895
N        0.377557       -0.441170        0.110175
N       -0.385672        0.443624       -0.125820
10
  Step 52: 52.0 fs
C       -1.819427       -0.055417        0.024036
H       -2.298098        0.344892        0.880734
H       -2.082189        0.241543       -1.146218
H       -1.692803       -1.199507        0.280416
C        1.801832        0.041727        0.004798
H        2.570230       -0.638604        0.328273
H        1.976129        0.357085       -1.093317
H        1.748863        0.927192        0.614326
N        0.378638       -0.430831        0.111551
N       -0.379563        0.440185       -0.126598
10
  Step 53: 53.0 fs
C       -1.822184       -0.063599        0.027309
H       -2.327202        0.386056        0.876919
H       -2.072757        0.235403       -1.135621
H       -1.711436       -1.191505        0.241884
C        1.798627        0.041203       -0.003727
H        2.560144       -0.671945        0.335439
H        1.978965        0.351809       -1.052355
H        1.764855        0.940131        0.641175
N        0.381912       -0.423467        0.113622
N       -0.375600        0.439033       -0.127279
10
  Step 54: 54.0 fs
C       -1.823471       -0.072684        0.028058
H       -2.359979        0.434837        0.869665
H       -2.071932        0.219842       -1.095153
H       -1.735455       -1.170226        0.196370
C        1.795311        0.041763       -0.012371
H        2.545628       -0.707088        0.342542
H        1.982902        0.345495       -1.008339
H        1.788417        0.952297        0.665774
N        0.387529       -0.419389        0.116469
N       -0.374179        0.440447       -0.127925
10
  Step 55: 55.0 fs
C       -1.823746       -0.081407        0.026941
H       -2.390309        0.483622        0.852392
H       -2.080646        0.196878       -1.031439
H       -1.763571       -1.144171        0.148907
C        1.792185        0.043047       -0.019136
H        2.523575       -0.739042        0.347212
H        1.990589        0.342841       -0.977722
H        1.818676        0.957356        0.683571
N        0.395292       -0.418467        0.120056
N       -0.375338        0.444292       -0.128505
10
  Step 56: 56.0 fs
C       -1.823293       -0.088374        0.024957
H       -2.413305        0.525549        0.821764
H       -2.100874        0.170814       -0.958361
H       -1.794190       -1.126217        0.104943
C        1.789424        0.044602       -0.022414
H        2.493057       -0.764325        0.347718
H        2.004625        0.348007       -0.974728
H        1.854162        0.951842        0.691928
N        0.404660       -0.420166        0.124221
N       -0.378781        0.450039       -0.128905
10
  Step 57: 57.0 fs
C       -1.822012       -0.092649        0.023634
H       -2.426114        0.555767        0.778341
H       -2.136515        0.148635       -0.898614
H       -1.825947       -1.128255        0.069082