10
  Step 0: 0.0 fs
C       -1.803708       -0.067736        0.000062
H       -2.311510        0.330666        0.889267
H       -2.311364        0.329952       -0.889479
H       -1.816421       -1.165805        0.000674
C        1.803677        0.067714        0.000027
H        2.310879       -0.329671        0.890062
H        2.312195       -0.330894       -0.888620
H        1.816224        1.165794       -0.000455
N        0.410954       -0.460074       -0.000168
N       -0.410929        0.460085       -0.000115
10
  Step 1: 1.0 fs
C       -1.802081       -0.064537       -0.008928
H       -2.292690        0.384907        0.860933
H       -2.318367        0.315126       -0.817302
H       -1.816480       -1.223223       -0.009365
C        1.784082        0.063229       -0.003874
H        2.346904       -0.340048        0.945731
H        2.342305       -0.326783       -0.886987
H        1.815953        1.215455       -0.034483
N        0.424165       -0.466159       -0.002704
N       -0.414329        0.465446        0.009359
10
  Step 2: 2.0 fs
C       -1.799460       -0.063148       -0.016190
H       -2.274822        0.435778        0.836309
H       -2.335552        0.309040       -0.768318
H       -1.817037       -1.264060       -0.017909
C        1.766118        0.059493       -0.006914
H        2.373276       -0.343398        0.986406
H        2.368774       -0.322406       -0.881709
H        1.814581        1.250531       -0.066588
N        0.436434       -0.471660       -0.005277
N       -0.417163        0.470075        0.018626
10
  Step 3: 3.0 fs
C       -1.795062       -0.064532       -0.020445
H       -2.258460        0.480171        0.818187
H       -2.371202        0.318002       -0.759033
H       -1.818430       -1.279712       -0.023873
C        1.751052        0.057069       -0.008819
H        2.384890       -0.336774        1.005197
H        2.388493       -0.317800       -0.870314
H        1.810989        1.263330       -0.094893
N        0.446907       -0.476172       -0.007907
N       -0.419004        0.473407        0.027464
10
  Step 4: 4.0 fs
C       -1.789325       -0.068375       -0.022080
H       -2.243803        0.515239        0.807543
H       -2.420042        0.338594       -0.784320
H       -1.820785       -1.267427       -0.026467
C        1.739800        0.056325       -0.009546
H        2.379627       -0.319446        1.000126
H        2.399519       -0.313535       -0.852184
H        1.804320        1.251411       -0.117887
N        0.454860       -0.479466       -0.010599
N       -0.419537        0.475047        0.035668
10
  Step 5: 5.0 fs
C       -1.783551       -0.073477       -0.022416
H       -2.230935        0.538449        0.803457
H       -2.467151        0.361387       -0.826144
H       -1.824097       -1.229409       -0.025194
C        1.732891        0.057422       -0.009108
H        2.357465       -0.291978        0.972439
H        2.401534       -0.310814       -0.828799
H        1.794094        1.216688       -0.134609
N        0.459739       -0.481469       -0.013358
N       -0.418554        0.474761        0.043065
10
  Step 6: 6.0 fs
C       -1.778845       -0.078351       -0.022484
H       -2.220070        0.547883        0.803902
H       -2.499914        0.378711       -0.868941
H       -1.828440       -1.173672       -0.019895
C        1.730377        0.060248       -0.007584
H        2.320680       -0.256167        0.926897
H        2.395959       -0.311414       -0.803581
H        1.780299        1.165806       -0.144904
N        0.461193       -0.482221       -0.016187
N       -0.415957        0.472458        0.049517
10
  Step 7: 7.0 fs
C       -1.775768       -0.081235       -0.022804
H       -2.211679        0.542741        0.806832
H       -2.511469        0.386512       -0.903346
H       -1.834211       -1.116267       -0.010728
C        1.731680        0.064295       -0.005319
H        2.275205       -0.215701        0.873978
H        2.385689       -0.317447       -0.781299
H        1.763414        1.111725       -0.149949
N        0.459120       -0.481849       -0.019096
N       -0.411767        0.468182        0.054933
10
  Step 8: 8.0 fs
C       -1.774447       -0.080122       -0.023634
H       -2.206531        0.523788        0.811057
H       -2.499186        0.383268       -0.924402
H       -1.842271       -1.080228        0.002058
C        1.735503        0.068659       -0.003265
H        2.232484       -0.176957        0.833018
H        2.374268       -0.330809       -0.766768
H        1.744205        1.073728       -0.152676
N        0.453690       -0.480554       -0.022090
N       -0.406143        0.462105        0.059267
10
  Step 9: 9.0 fs
C       -1.774755       -0.073777       -0.025143
H       -2.205705        0.493579        0.816725
H       -2.463203        0.369151       -0.930057
H       -1.853267       -1.082933        0.018247
C        1.740188        0.072453       -0.003016
H        2.207327       -0.147541        0.829446
H        2.364493       -0.352253       -0.762797
H        1.723288        1.070144       -0.156872
N        0.445345       -0.478613       -0.025166
N       -0.399387        0.454544        0.062531
10
  Step 10: 10.0 fs
C       -1.776469       -0.063130       -0.027371
H       -2.210518        0.456183        0.825299
H       -2.406138        0.345922       -0.921011
H       -1.866237       -1.119213        0.037001
C        1.744843        0.075471       -0.005478
H        2.206066       -0.130246        0.874891
H        2.357393       -0.380684       -0.768798
H        1.701305        1.103854       -0.164489
N        0.434760       -0.476400       -0.028317
N       -0.391966        0.445971        0.064792
10
  Step 11: 11.0 fs
C       -1.779205       -0.050694       -0.029973
H       -2.222136        0.416146        0.838593
H       -2.333958        0.317419       -0.902177
H       -1.878777       -1.167696        0.056262
C        1.749905        0.078226       -0.009646
H        2.219464       -0.120328        0.951804
H        2.352290       -0.413195       -0.781088
H        1.679869        1.159255       -0.174426
N        0.422816       -0.474401       -0.031539
N       -0.384526        0.437016        0.066180
10
  Step 12: 12.0 fs
C       -1.782227       -0.038986       -0.031884
H       -2.240897        0.377172        0.856931
H       -2.257282        0.290277       -0.885553
H       -1.888607       -1.208849        0.073467
C        1.756088        0.081417       -0.013905
H        2.234542       -0.111832        1.032442
H        2.347640       -0.445788       -0.794408
H        1.661455        1.215761       -0.184452
N        0.410560       -0.473205       -0.034834
N       -0.377865        0.428440        0.066886
10
  Step 13: 13.0 fs
C       -1.784562       -0.029884       -0.031261
H       -2.265833        0.341598        0.877768
H       -2.189962        0.273178       -0.890368
H       -1.894280       -1.231340        0.086368
C        1.763658        0.085490       -0.017243
H        2.243320       -0.101438        1.097024
H        2.342099       -0.474467       -0.803814
H        1.648387        1.258154       -0.192909
N        0.399092       -0.473439       -0.038214
N       -0.372818        0.421059        0.067148
10
  Step 14: 14.0 fs
C       -1.785712       -0.024371       -0.026621
H       -2.294960        0.311017        0.896391
H       -2.140865        0.271566       -0.930421
H       -1.895038       -1.230556        0.093351
C        1.772487        0.090568       -0.019231
H        2.242505       -0.087980        1.135125
H        2.335200       -0.496106       -0.805895
H        1.642281        1.278129       -0.199034
N        0.389413       -0.475667       -0.041691
N       -0.370108        0.415622        0.067239
10
  Step 15: 15.0 fs
C       -1.786157       -0.022351       -0.018482
H       -2.326045        0.286991        0.908111
H       -2.107545        0.282454       -0.996629
H       -1.890557       -1.206481        0.093499
C        1.782226        0.096558       -0.019714
H        2.231445       -0.071384        1.142387
H        2.327538       -0.508885       -0.799197
H        1.644002        1.272602       -0.202762
N        0.382257       -0.480240       -0.045270
N       -0.370177        0.412668        0.067432
10
  Step 16: 16.0 fs
C       -1.786690       -0.023058       -0.008741
H       -2.357146        0.271156        0.909815
H       -2.083332        0.298524       -1.065630
H       -1.880936       -1.163175        0.086564
C        1.792411        0.103200       -0.018639
H        2.211041       -0.052179        1.118488
H        2.320716       -0.512481       -0.784259
H        1.653668        1.242934       -0.204680
N        0.377965       -0.487170       -0.048933
N       -0.373090        0.412390        0.067953
10
  Step 17: 17.0 fs
C       -1.787777       -0.025423        0.000865
H       -2.386900        0.264976        0.900364
H       -2.064144        0.313923       -1.118254
H       -1.866858       -1.109823        0.073004
C        1.802497        0.110024       -0.016068
H        2.183647       -0.031464        1.067372
H        2.317157       -0.508125       -0.763444
H        1.670465        1.195375       -0.206208
N        0.376458       -0.496074       -0.052630
N       -0.378528        0.414588        0.068949
10
  Step 18: 18.0 fs
C       -1.789525       -0.028009        0.009166
H       -2.414599        0.269380        0.880360
H       -2.048655        0.325369       -1.144203
H       -1.849707       -1.062273        0.054008
C        1.811840        0.116207       -0.012389
H        2.153795       -0.011212        0.999875
H        2.319768       -0.498472       -0.740510
H        1.692336        1.142903       -0.210075
N        0.377313       -0.506232       -0.056278
N       -0.385862        0.418725        0.070490
10
  Step 19: 19.0 fs
C       -1.791840       -0.029123        0.015426
H       -2.440095        0.284440        0.851675
H       -2.036889        0.331385       -1.139704
H       -1.831251       -1.040413        0.031149
C        1.819637        0.120572       -0.008734
H        2.129275        0.005329        0.937969
H        2.331408       -0.487097       -0.719785
H        1.716050        1.105080       -0.220530
N        0.379919       -0.516730       -0.059773
N       -0.394287        0.424059        0.072591
10
  Step 20: 20.0 fs
C       -1.794590       -0.027795        0.019256
H       -2.463623        0.309219        0.817016
H       -2.029433        0.331756       -1.105512
H       -1.812876       -1.055759        0.005819
C        1.824949        0.122126       -0.007090
H        2.120173        0.014228        0.913037
H        2.354044       -0.477372       -0.704702
H        1.738591        1.099886       -0.241772
N        0.383634       -0.526609       -0.063009
N       -0.402960        0.429797        0.075231
10
  Step 21: 21.0 fs
C       -1.797637       -0.024745        0.020594
H       -2.485539        0.341888        0.779571
H       -2.027256        0.327504       -1.046796
H       -1.795586       -1.099932       -0.020339
C        1.827238        0.120952       -0.008782
H        2.131465        0.014146        0.942635
H        2.387910       -0.471297       -0.696508
H        1.759072        1.128778       -0.274029
N        0.387882       -0.535005       -0.065896
N       -0.411107        0.435209        0.078373
10
  Step 22: 22.0 fs
C       -1.800770       -0.021726        0.019855
H       -2.505885        0.379909        0.742598
H       -2.031973        0.321330       -0.974917
H       -1.780769       -1.152981       -0.044852
C        1.827000        0.118069       -0.012810
H        2.156702        0.008595        1.008728
H        2.430911       -0.468785       -0.693707
H        1.778261        1.175477       -0.312167
N        0.392197       -0.541210       -0.068365
N       -0.418088        0.439681        0.081967
10
  Step 23: 23.0 fs
C       -1.803658       -0.020420        0.018236
H       -2.523991        0.420205        0.709040
H       -2.046477        0.318491       -0.909883
H       -1.770117       -1.197476       -0.065187
C        1.825307        0.114541       -0.017401
H        2.185270        0.002383        1.080070
H        2.478605       -0.467822       -0.692524
H        1.796720        1.220288       -0.349250
N        0.396238       -0.544710       -0.070370
N       -0.423441        0.442744        0.085940
10
  Step 24: 24.0 fs
C       -1.805895       -0.022025        0.017507
H       -2.538378        0.459384        0.681225
H       -2.074711        0.326007       -0.876507
H       -1.765096       -1.222920       -0.079529
C        1.823165        0.111048       -0.021521
H        2.209541       -0.001355        1.135066
H        2.525264       -0.465744       -0.688549
H        1.814214        1.249443       -0.379760
N        0.399781       -0.545198       -0.071885
N       -0.426890        0.444094        0.090195
10
  Step 25: 25.0 fs
C       -1.807336       -0.026898        0.018503
H       -2.547147        0.494086        0.660763
H       -2.117655        0.346827       -0.886406
H       -1.766715       -1.224697       -0.086822
C        1.821339        0.107929       -0.024787
H        2.225334       -0.001105        1.163195
H        2.565438       -0.460625       -0.678468
H        1.830016        1.255987       -0.400338
N        0.402702       -0.542572       -0.072915
N       -0.428338        0.443591        0.094610
10
  Step 26: 26.0 fs
C       -1.808439       -0.034283        0.020162
H       -2.548495        0.521349        0.648380
H       -2.168984        0.374965       -0.926602
H       -1.775498       -1.202790       -0.086603
C        1.820347        0.105323       -0.027067
H        2.230614        0.003721        1.160696
H        2.595028       -0.451916       -0.660820
H        1.843228        1.238014       -0.409439
N        0.404955       -0.536921       -0.073494
N       -0.427834        0.441258        0.099054
10
  Step 27: 27.0 fs
C       -1.809930       -0.042791        0.020848
H       -2.541121        0.538852        0.643877
H       -2.218997        0.401016       -0.975461
H       -1.791529       -1.161940       -0.079053
C        1.820466        0.103215       -0.028263
H        2.224661        0.013186        1.127984
H        2.611917       -0.440632       -0.636182
H        1.852969        1.197976       -0.407200
N        0.406574       -0.528518       -0.073693
N       -0.425543        0.437266        0.103407
10
  Step 28: 28.0 fs
C       -1.812314       -0.050785        0.019541
H       -2.524649        0.545273        0.646561
H       -2.260122        0.418227       -1.017311
H       -1.814498       -1.113271       -0.065199
C        1.821693        0.101373       -0.028279
H        2.208035        0.026916        1.069534
H        2.616308       -0.429309       -0.607113
H        1.858538        1.143139       -0.395740
N        0.407663       -0.517799       -0.073615
N       -0.421733        0.431916        0.107575
10
  Step 29: 29.0 fs
C       -1.815752       -0.056397        0.015872
H       -2.499962        0.540670        0.655887
H       -2.287986        0.423175       -1.043684
H       -1.843875       -1.075070       -0.046821
C        1.823653        0.099217       -0.027188
H        2.183379        0.043977        0.996200
H        2.610782       -0.421781       -0.577861
H        1.859580        1.087120       -0.379905
N        0.408406       -0.505351       -0.073393
N       -0.416771        0.425613        0.111499
10
  Step 30: 30.0 fs
C       -1.820114       -0.057966        0.009771
H       -2.469286        0.526773        0.671981
H       -2.300525        0.414656       -1.050615
H       -1.879250       -1.066682       -0.025573
C        1.825504        0.095826       -0.025633
H        2.156838        0.062778        0.929181
H        2.599845       -0.422569       -0.553665
H        1.856241        1.049064       -0.367225
N        0.409076       -0.491883       -0.073178
N       -0.411111        0.418848        0.115161
10
  Step 31: 31.0 fs
C       -1.825110       -0.055277        0.001228
H       -2.435897        0.506858        0.695791
H       -2.297296        0.393032       -1.037009
H       -1.919826       -1.093107       -0.001967
C        1.826070        0.090500       -0.025163
H        2.138002        0.081678        0.899294
H        2.588407       -0.435634       -0.539273
H        1.849063        1.045005       -0.364785
N        0.410027       -0.478198       -0.073139
N       -0.405286        0.412187        0.118587
10
  Step 32: 32.0 fs
C       -1.830488       -0.049959       -0.009562
H       -2.403189        0.484715        0.728397
H       -2.279529        0.360333       -1.004745
H       -1.963062       -1.139551        0.023800
C        1.824647        0.083621       -0.027110
H        2.133104        0.100342        0.926313
H        2.579393       -0.462611       -0.536930
H        1.838841        1.074485       -0.373908
N        0.411670       -0.465147       -0.073447
N       -0.399885        0.406240        0.121830
10
  Step 33: 33.0 fs
C       -1.836018       -0.044218       -0.021763
H       -2.373293        0.463016        0.769252
H       -2.251104        0.320993       -0.960735
H       -2.005048       -1.185704        0.050452
C        1.821731        0.076541       -0.030690
H        2.137742        0.119060        0.995098
H        2.572204       -0.501640       -0.545271
H        1.826839        1.121169       -0.389935
N        0.414400       -0.453540       -0.074271
N       -0.395506        0.401597        0.124955
10
  Step 34: 34.0 fs
C       -1.841272       -0.039892       -0.033474
H       -2.346416        0.442461        0.814644
H       -2.220172        0.282962       -0.920623
H       -2.042045       -1.217250        0.075891
C        1.818401        0.070633       -0.034101
H        2.143444        0.136924        1.074004
H        2.563280       -0.547693       -0.559944
H        1.814759        1.166213       -0.406961
N        0.418516       -0.444042       -0.075749
N       -0.392662        0.398729        0.128009
10
  Step 35: 35.0 fs
C       -1.845507       -0.038356       -0.041822
H       -2.321760        0.422576        0.858088
H       -2.198828        0.257036       -0.908890
H       -2.071244       -1.227143        0.097913
C        1.815538        0.066693       -0.036184
H        2.144915        0.152359        1.139472
H        2.548357       -0.594317       -0.575549
H        1.804316        1.196388       -0.420768
N        0.424137       -0.437073       -0.077961
N       -0.391692        0.397903        0.131009
10
  Step 36: 36.0 fs
C       -1.848210       -0.040265       -0.044645
H       -2.298937        0.403224        0.892818
H       -2.195350        0.250177       -0.941851
H       -2.090751       -1.213594        0.114640
C        1.813648        0.064983       -0.036510
H        2.140221        0.164054        1.179235
H        2.524658       -0.635629       -0.587497
H        1.796949        1.204793       -0.429151
N        0.431131       -0.432757       -0.080910
N       -0.392666        0.399126        0.133927
10
  Step 37: 37.0 fs
C       -1.849759       -0.045148       -0.042497
H       -2.278603        0.385342        0.914157
H       -2.205869        0.258943       -1.006508
H       -2.099515       -1.179015        0.124753
C        1.812934        0.065439       -0.034995
H        2.129258        0.171133        1.188161
H        2.491647       -0.667332       -0.592799
H        1.793764        1.189333       -0.431463
N        0.439092       -0.430930       -0.084522
N       -0.395368        0.402145        0.136695
10
  Step 38: 38.0 fs
C       -1.850847       -0.051834       -0.037531
H       -2.262319        0.370906        0.920483
H       -2.220927        0.274942       -1.074816
H       -2.097579       -1.130306        0.127634
C        1.813369        0.067772       -0.031654
H        2.112896        0.173108        1.165454
H        2.451102       -0.687218       -0.590270
H        1.795538        1.152129       -0.428504
N        0.447376       -0.431206       -0.088661
N       -0.399353        0.406501        0.139208
10
  Step 39: 39.0 fs
C       -1.851747       -0.058857       -0.031663
H       -2.252218        0.362499        0.913101
H       -2.233699        0.291589       -1.125680
H       -2.086661       -1.080448        0.123686
C        1.814737        0.071441       -0.026539
H        2.092844        0.169892        1.114234
H        2.406815       -0.695401       -0.580509
H        1.802681        1.100043       -0.422816
N        0.455194       -0.433061       -0.093150
N       -0.404050        0.411618        0.141335
10
  Step 40: 40.0 fs
C       -1.852248       -0.064461       -0.026250
H       -2.250644        0.362721        0.895578
H       -2.240860        0.305035       -1.148348
H       -2.070368       -1.048674        0.114586
C        1.816621        0.075530       -0.019859
H        2.072093        0.161994        1.043709
H        2.364143       -0.694463       -0.565830
H        1.815203        1.045987       -0.419412
N        0.461729       -0.435929       -0.097799
N       -0.408878        0.416905        0.142944
10
  Step 41: 41.0 fs
C       -1.851963       -0.067110       -0.022222
H       -2.259740        0.373409        0.872631
H       -2.241139        0.313226       -1.138967
H       -2.052458       -1.052890        0.102447
C        1.818338        0.078795       -0.012390
H        2.055818        0.150906        0.973477
H        2.329287       -0.689256       -0.549948
H        1.832820        1.007629       -0.425579
N        0.466254       -0.439256       -0.102424
N       -0.413320        0.421834        0.143921
10
  Step 42: 42.0 fs
C       -1.850744       -0.066647       -0.019981
H       -2.280737        0.394676        0.848448
H       -2.234430        0.315353       -1.098367
H       -2.033643       -1.094434        0.088055
C        1.818955        0.080276       -0.005979
H        2.051667        0.139235        0.935109
H        2.308058       -0.685755       -0.537067
H        1.855264        0.998748       -0.447346
N        0.468210       -0.442540       -0.106854
N       -0.416966        0.425985        0.144192
10
  Step 43: 43.0 fs
C       -1.848724       -0.064441       -0.019280
H       -2.313062        0.424204        0.825128
H       -2.221804        0.311965       -1.032172
H       -2.011872       -1.155731        0.071098
C        1.817763        0.080175       -0.002644
H        2.065609        0.129300        0.953790
H        2.304199       -0.688636       -0.530186
H        1.882084        1.017913       -0.483553
N        0.467265       -0.445363       -0.110947
N       -0.419535        0.429078        0.143728
10
  Step 44: 44.0 fs
C       -1.846001       -0.062195       -0.019147
H       -2.353827        0.457343        0.802407
H       -2.206390        0.305774       -0.953055
H       -1.985670       -1.215248        0.051818
C        1.815068        0.079602       -0.002194
H        2.094492        0.121485        1.018342
H        2.318040       -0.698820       -0.529530
H        1.911932        1.050853       -0.525811
N        0.463325       -0.447418       -0.114590
N       -0.420905        0.430968        0.142548
10
  Step 45: 45.0 fs
C       -1.842356       -0.061301       -0.017761
H       -2.398405        0.488335        0.779014
H       -2.194805        0.303118       -0.883638
H       -1.955321       -1.257730        0.031220
C        1.811976        0.079462       -0.002964
H        2.128831        0.115344        1.095559
H        2.346201       -0.712775       -0.532164
H        1.942582        1.082077       -0.564336
N        0.456539       -0.448523       -0.117705
N       -0.421108        0.431644        0.140709
10
  Step 46: 46.0 fs
C       -1.837326       -0.062798       -0.012976
H       -2.441689        0.511866        0.754262
H       -2.195884        0.312888       -0.851302
H       -1.922242       -1.275113        0.010576
C        1.809610        0.080019       -0.003831
H        2.160402        0.110759        1.159710
H        2.382820       -0.724541       -0.533523
H        1.971592        1.101061       -0.591896
N        0.447273       -0.448634       -0.120259
N       -0.420308        0.431227        0.138310
10
  Step 47: 47.0 fs
C       -1.830896       -0.066891       -0.004191
H       -2.479275        0.524097        0.728649
H       -2.212244        0.337968       -0.866261
H       -1.888273       -1.264805       -0.008810
C        1.808773        0.081133       -0.004398
H        2.184181        0.107917        1.197616
H        2.421612       -0.728842       -0.529616
H        1.996784        1.102637       -0.604456
N        0.436065       -0.447850       -0.122271
N       -0.418773        0.429969        0.135490
10
  Step 48: 48.0 fs
C       -1.823906       -0.072573        0.006848
H       -2.508032        0.522930        0.703506
H       -2.235426        0.369868       -0.911552
H       -1.855352       -1.229138       -0.025699
C        1.809929        0.082525       -0.004558
H        2.197399        0.107107        1.204075
H        2.457253       -0.722671       -0.518136
H        2.016492        1.085776       -0.600631
N        0.423583       -0.446403       -0.123812
N       -0.416838        0.428247        0.132425
10
  Step 49: 49.0 fs
C       -1.817308       -0.078292        0.017870
H       -2.526313        0.507959        0.680548
H       -2.254583        0.397472       -0.963858
H       -1.825390       -1.176132       -0.039197
C        1.813235        0.083857       -0.004207
H        2.198669        0.108619        1.178482
H        2.486075       -0.705719       -0.498713
H        2.029702        1.053113       -0.581472
N        0.410571       -0.444645       -0.125002
N       -0.414892        0.426546        0.129323
10
  Step 50: 50.0 fs
C       -1.811610       -0.082368        0.027300
H       -2.534229        0.480529        0.661956
H       -2.263019        0.413836       -1.007698
H       -1.800013       -1.121343       -0.049256
C        1.818512        0.084679       -0.003157
H        2.187777        0.112738        1.124143
H        2.506450       -0.680320       -0.472858
H        2.036351        1.011519       -0.550886
N        0.397807       -0.443010       -0.125996
N       -0.413345        0.425423        0.126402
10
  Step 51: 51.0 fs
C       -1.806905       -0.083077        0.034230
H       -2.533958        0.443794        0.650749
H       -2.257986        0.416038       -1.035053
H       -1.780033       -1.086633       -0.057059
C        1.825158        0.084336       -0.001270
H        2.166227        0.119731        1.050237
H        2.519103       -0.651262       -0.443834
H        2.037683        0.972981       -0.516247
N        0.386032       -0.441950       -0.126959
N       -0.412572        0.425430        0.123884
10
  Step 52: 52.0 fs
C       -1.803033       -0.079435        0.038077
H       -2.529687        0.402425        0.650863
H       -2.239149        0.403623       -1.042299
H       -1.765239       -1.088817       -0.064207
C        1.832054        0.082029        0.001083
H        2.138516        0.129982        0.976029
H        2.527133       -0.625186       -0.416292
H        2.036079        0.953128       -0.487541
N        0.375875       -0.441847       -0.128031
N       -0.412840        0.427025        0.121963
10
  Step 53: 53.0 fs
C       -1.799680       -0.072303        0.038333
H       -2.526495        0.361470        0.666401
H       -2.207709        0.377739       -1.028467
H       -1.755167       -1.124422       -0.070697
C        1.837724        0.077319        0.002329
H        2.112801        0.144478        0.933266
H        2.535304       -0.609209       -0.395272
H        2.033385        0.963364       -0.472616
N        0.367787       -0.442925       -0.129296
N       -0.414245        0.430472        0.120784
10
  Step 54: 54.0 fs
C       -1.796587       -0.063802        0.034780
H       -2.527310        0.324136        0.699146
H       -2.166425        0.341076       -0.995434
H       -1.749575       -1.174164       -0.074783
C        1.841105        0.070721        0.000456
H        2.095913        0.164742        0.949658
H        2.547790       -0.608244       -0.384290
H        2.029041        1.001154       -0.471574
N        0.361993       -0.445205       -0.130771
N       -0.416685        0.435779        0.120424
10
  Step 55: 55.0 fs
C       -1.793741       -0.055913        0.028055
H       -2.530302        0.290588        0.745983
H       -2.120373        0.298499       -0.950106
H       -1.748017       -1.219053       -0.074803
C        1.842411        0.063559       -0.004296
H        2.085139        0.190077        1.016635
H        2.565468       -0.622488       -0.383631
H        2.021019        1.052062       -0.478172
N        0.358486       -0.448491       -0.132414
N       -0.419868        0.442690        0.120878
10
  Step 56: 56.0 fs
C       -1.791191       -0.050102        0.020031
H       -2.529960        0.259245        0.799105
H       -2.077948        0.257979       -0.908240
H       -1.749645       -1.247241       -0.070046
C        1.842582        0.057165       -0.009878
H        2.073305        0.216402        1.100265
H        2.585007       -0.647168       -0.390339
H        2.007927        1.099928       -0.485453
N        0.357070       -0.452405       -0.134136
N       -0.423357        0.450742        0.122067
10
  Step 57: 57.0 fs
C       -1.788773       -0.047511        0.013555
H       -2.520840        0.228995        0.849127
H       -2.050031        0.229708       -0.894443
H       -1.753367       -1.253355       -0.060642