10
  Step 0: 0.0 fs
C       -1.803704       -0.067736        0.000067
H       -2.311475        0.330679        0.889271
H       -2.311370        0.329979       -0.889467
H       -1.816435       -1.165809        0.000666
C        1.803670        0.067719        0.000029
H        2.310877       -0.329670        0.890050
H        2.312207       -0.330868       -0.888632
H        1.816219        1.165788       -0.000408
N        0.410952       -0.460081       -0.000163
N       -0.410926        0.460084       -0.000128
10
  Step 1: 1.0 fs
C       -1.792782       -0.073775       -0.002376
H       -2.328057        0.419994        0.924481
H       -2.355714        0.327386       -0.861406
H       -1.797640       -1.114992       -0.022182
C        1.791668        0.073311       -0.002717
H        2.357893       -0.363561        0.935051
H        2.326534       -0.323705       -0.883206
H        1.873466        1.230078        0.021108
N        0.402362       -0.461419       -0.001161
N       -0.406915        0.449201       -0.002771
10
  Step 2: 2.0 fs
C       -1.782866       -0.077243       -0.003723
H       -2.335491        0.497554        0.946196
H       -2.396924        0.325209       -0.834304
H       -1.780629       -1.085168       -0.042107
C        1.781001        0.079345       -0.004209
H        2.394322       -0.390252        0.964994
H        2.338898       -0.315999       -0.877070
H        1.926686        1.277950        0.042170
N        0.394565       -0.463173       -0.002172
N       -0.403543        0.439104       -0.005518
10
  Step 3: 3.0 fs
C       -1.774578       -0.076299       -0.003562
H       -2.329653        0.555692        0.949384
H       -2.431918        0.323574       -0.808647
H       -1.766749       -1.092405       -0.057194
C        1.772602        0.085987       -0.003891
H        2.414547       -0.406223        0.973463
H        2.347597       -0.307315       -0.869684
H        1.971838        1.300652        0.062068
N        0.388296       -0.465781       -0.003205
N       -0.401414        0.430554       -0.008459
10
  Step 4: 4.0 fs
C       -1.768305       -0.071084       -0.001841
H       -2.309409        0.590207        0.933767
H       -2.458158        0.322424       -0.785202
H       -1.756962       -1.132309       -0.065897
C        1.767058        0.093177       -0.001564
H        2.416121       -0.410193        0.958892
H        2.351456       -0.297486       -0.861142
H        2.005576        1.295160        0.080124
N        0.384132       -0.469571       -0.004257
N       -0.400969        0.424157       -0.011677
10
  Step 5: 5.0 fs
C       -1.764251       -0.063238        0.001312
H       -2.275449        0.599466        0.901762
H       -2.474054        0.321603       -0.765428
H       -1.751988       -1.184735       -0.066619
C        1.764650        0.100675        0.002778
H        2.398748       -0.402391        0.922694
H        2.350015       -0.286680       -0.852427
H        2.025477        1.262830        0.095830
N        0.382402       -0.474651       -0.005325
N       -0.402388        0.420239       -0.015253
10
  Step 6: 6.0 fs
C       -1.762416       -0.054527        0.005654
H       -2.230300        0.584391        0.858448
H       -2.479178        0.320958       -0.751470
H       -1.752177       -1.230054       -0.058359
C        1.765291        0.108044        0.008928
H        2.364494       -0.384824        0.869414
H        2.343559       -0.275358       -0.845369
H        2.030333        1.209727        0.108975
N        0.383144       -0.480846       -0.006403
N       -0.405542        0.418790       -0.019266
10
  Step 7: 7.0 fs
C       -1.762510       -0.046405        0.010674
H       -2.179328        0.549802        0.813242
H       -2.474245        0.320429       -0.745731
H       -1.757480       -1.255887       -0.041050
C        1.768368        0.114583        0.016245
H        2.319248       -0.362638        0.808638
H        2.332975       -0.264089       -0.842279
H        2.020788        1.148514        0.119901
N        0.386117       -0.487716       -0.007491
N       -0.410010        0.419478       -0.023789
10
  Step 8: 8.0 fs
C       -1.763849       -0.040294        0.015261
H       -2.132086        0.506693        0.782715
H       -2.460797        0.320118       -0.750058
H       -1.767540       -1.256332       -0.015414
C        1.772522        0.119319        0.023318
H        2.274898       -0.346246        0.757874
H        2.319441       -0.253231       -0.845206
H        2.000072        1.100436        0.129935
N        0.390862       -0.494636       -0.008587
N       -0.415157        0.421758       -0.028880
10
  Step 9: 9.0 fs
C       -1.765499       -0.037649        0.017719
H       -2.100869        0.471149        0.789155
H       -2.440689        0.320287       -0.764699
H       -1.781738       -1.230351        0.017141
C        1.775907        0.121376        0.028079
H        2.247826       -0.350516        0.740372
H        2.304131       -0.242655       -0.855076
H        1.972864        1.090020        0.141303
N        0.396799       -0.500930       -0.009693
N       -0.420247        0.424993       -0.034560
10
  Step 10: 10.0 fs
C       -1.767012       -0.038935        0.017126
H       -2.092063        0.452227        0.843574
H       -2.415689        0.321292       -0.787738
H       -1.799173       -1.181749        0.054516
C        1.777587        0.120617        0.029399
H        2.246796       -0.383131        0.767464
H        2.288130       -0.231771       -0.871321
H        1.941186        1.126016        0.155460
N        0.403307       -0.505993       -0.010814
N       -0.424572        0.428572       -0.040810
10
  Step 11: 11.0 fs
C       -1.768871       -0.042735        0.014716
H       -2.100239        0.443124        0.929377
H       -2.387473        0.323418       -0.815574
H       -1.818793       -1.120741        0.094196
C        1.778358        0.117645        0.028453
H        2.263909       -0.433655        0.824171
H        2.272478       -0.219801       -0.892085
H        1.903541        1.190814        0.171415
N        0.409801       -0.509376       -0.011952
N       -0.427563        0.431979       -0.047557
10
  Step 12: 12.0 fs
C       -1.771730       -0.046594        0.012489
H       -2.116305        0.433442        1.018877
H       -2.357735        0.326637       -0.843951
H       -1.839888       -1.065568        0.134252
C        1.779396        0.113300        0.027205
H        2.286098       -0.484823        0.886215
H        2.258099       -0.205988       -0.914558
H        1.859168        1.257741        0.186869
N        0.415807       -0.510807       -0.013097
N       -0.428846        0.434805       -0.054678
10
  Step 13: 13.0 fs
C       -1.775817       -0.048125        0.011659
H       -2.134122        0.418467        1.092055
H       -2.328244        0.330500       -0.868969
H       -1.862547       -1.038442        0.174370
C        1.781283        0.108288        0.026948
H        2.304775       -0.524492        0.936398
H        2.245759       -0.189781       -0.935585
H        1.809705        1.307314        0.199910
N        0.420989       -0.510170       -0.014219
N       -0.428251        0.436742       -0.062013
10
  Step 14: 14.0 fs
C       -1.781040       -0.046210        0.012693
H       -2.150483        0.398091        1.138429
H       -2.300908        0.334316       -0.887759
H       -1.886853       -1.050474        0.214405
C        1.784102        0.103100        0.028234
H        2.315911       -0.546553        0.965691
H        2.236073       -0.170949       -0.952339
H        1.758103        1.329275        0.209468
N        0.425137       -0.507501       -0.015287
N       -0.425772        0.437586       -0.069391
10
  Step 15: 15.0 fs
C       -1.787275       -0.041714        0.015940
H       -2.163769        0.374188        1.153464
H       -2.277821        0.337502       -0.898835
H       -1.911274       -1.091189        0.251118
C        1.787699        0.098066        0.031199
H        2.318065       -0.548660        0.970201
H        2.229548       -0.149666       -0.962795
H        1.707678        1.319824        0.215218
N        0.428142       -0.502975       -0.016264
N       -0.421524        0.437241       -0.076649
10
  Step 16: 16.0 fs
C       -1.794411       -0.036399        0.021760
H       -2.173187        0.349267        1.136139
H       -2.261070        0.339719       -0.902006
H       -1.933071       -1.140435        0.279063
C        1.791816        0.093397        0.035746
H        2.311354       -0.530821        0.949369
H        2.226627       -0.126455       -0.965978
H        1.661669        1.279710        0.217452
N        0.429980       -0.496908       -0.017123
N       -0.415731        0.435730       -0.083642
10
  Step 17: 17.0 fs
C       -1.802253       -0.031735        0.030247
H       -2.178745        0.326238        1.088730
H       -2.252408        0.340813       -0.898025
H       -1.949846       -1.182224        0.293835
C        1.796111        0.089187        0.041559
H        2.297494       -0.495383        0.906010
H        2.227725       -0.102142       -0.962120
H        1.622935        1.214219        0.217146
N        0.430708       -0.489770       -0.017839
N       -0.408731        0.433201       -0.090252
10
  Step 18: 18.0 fs
C       -1.810427       -0.028714        0.040902
H       -2.182022        0.309033        1.018986
H       -2.252915        0.340690       -0.888186
H       -1.960169       -1.207606        0.293337
C        1.800110        0.085374        0.047882
H        2.281064       -0.448522        0.848460
H        2.233185       -0.077691       -0.952538
H        1.593282        1.134913        0.216234
N        0.430469       -0.482181       -0.018385
N       -0.400977        0.429939       -0.096390
10
  Step 19: 19.0 fs
C       -1.818266       -0.028130        0.052290
H       -2.187842        0.303970        0.944175
H       -2.262755        0.339221       -0.873987
H       -1.963489       -1.212669        0.277516
C        1.803105        0.081698        0.053175
H        2.271704       -0.402545        0.794006
H        2.243228       -0.054003       -0.939452
H        1.572178        1.062040        0.217955
N        0.429500       -0.474894       -0.018723
N       -0.393026        0.426366       -0.101991
10
  Step 20: 20.0 fs
C       -1.824743       -0.030807        0.061978
H       -2.205470        0.320667        0.891999
H       -2.281141        0.336238       -0.857065
H       -1.959947       -1.196901        0.248010
C        1.804202        0.077786        0.055222
H        2.284029       -0.374727        0.767474
H        2.257910       -0.031761       -0.925656
H        1.556111        1.021762        0.226548
N        0.428135       -0.468727       -0.018795
N       -0.385502        0.423017       -0.107016
10
  Step 21: 21.0 fs
C       -1.828993       -0.037148        0.068030
H       -2.242575        0.366620        0.883315
H       -2.306552        0.331684       -0.839303
H       -1.950339       -1.163112        0.207981
C        1.802963        0.073380        0.052874
H        2.326392       -0.374492        0.782547
H        2.277090       -0.011393       -0.914117
H        1.542098        1.030069        0.244817
N        0.426765       -0.464453       -0.018536
N       -0.379044        0.420459       -0.111452
10
  Step 22: 22.0 fs
C       -1.831306       -0.046013        0.071001
H       -2.293318        0.435607        0.908347
H       -2.337030        0.325780       -0.822604
H       -1.936217       -1.119335        0.162043
C        1.800078        0.068730        0.047665
H        2.388183       -0.393183        0.825079
H        2.300307        0.006819       -0.907275
H        1.532754        1.077348        0.271113
N        0.425775       -0.462665       -0.017901
N       -0.374219        0.419193       -0.115312
10
  Step 23: 23.0 fs
C       -1.832698       -0.054761        0.072619
H       -2.343241        0.510776        0.942100
H       -2.370283        0.319004       -0.808067
H       -1.919962       -1.081090        0.115778
C        1.796706        0.064705        0.042086
H        2.450689       -0.416523        0.871289
H        2.326350        0.022670       -0.905773
H        1.533617        1.139394        0.300394
N        0.425459       -0.463668       -0.016879
N       -0.371442        0.419539       -0.118626
10
  Step 24: 24.0 fs
C       -1.833934       -0.060524        0.073940
H       -2.381222        0.576968        0.967268
H       -2.403760        0.311910       -0.795652
H       -1.904177       -1.068340        0.074165
C        1.793825        0.062196        0.037783
H        2.500265       -0.435309        0.905161
H        2.352932        0.035969       -0.907921
H        1.547939        1.195501        0.327651
N        0.425952       -0.467425       -0.015491
N       -0.370914        0.421569       -0.121413
10
  Step 25: 25.0 fs
C       -1.835437       -0.061725        0.075334
H       -2.401698        0.624773        0.976405
H       -2.434934        0.304950       -0.784735
H       -1.890295       -1.091370        0.040091
C        1.792174        0.061763        0.035442
H        2.529761       -0.445388        0.919157
H        2.377011        0.046507       -0.910620
H        1.575836        1.233198        0.349406
N        0.427182       -0.473583       -0.013791
N       -0.372589        0.425097       -0.123670
10
  Step 26: 26.0 fs
C       -1.837470       -0.058890        0.076820
H       -2.402629        0.649319        0.967659
H       -2.461626        0.298336       -0.774857
H       -1.878218       -1.139721        0.015260
C        1.792284        0.063650        0.035217
H        2.536228       -0.445459        0.910766
H        2.395591        0.054074       -0.910916
H        1.615512        1.246242        0.363629
N        0.428885       -0.481539       -0.011854
N       -0.376186        0.429716       -0.125380
10
  Step 27: 27.0 fs
C       -1.840136       -0.053628        0.078230
H       -2.384042        0.648812        0.942197
H       -2.482204        0.291994       -0.766119
H       -1.867581       -1.192734        0.001288
C        1.794465        0.067861        0.037013
H        2.519474       -0.435945        0.880589
H        2.406465        0.058509       -0.907141
H        1.664111        1.232794        0.369422
N        0.430682       -0.490543       -0.009769
N       -0.381267        0.434873       -0.126520
10
  Step 28: 28.0 fs
C       -1.843326       -0.047435        0.079295
H       -2.347797        0.624138        0.903749
H       -2.495752        0.285690       -0.759313
H       -1.858449       -1.233375       -0.000745
C        1.798736        0.074191        0.040528
H        2.482132       -0.419099        0.832300
H        2.408631        0.059732       -0.899403
H        1.718047        1.195063        0.367009
N        0.432165       -0.499785       -0.007630
N       -0.387320        0.439951       -0.127067
10
  Step 29: 29.0 fs
C       -1.846649       -0.041522        0.079537
H       -2.298564        0.580054        0.860136
H       -2.502153        0.279241       -0.755771
H       -1.851166       -1.251774        0.009318
C        1.804672        0.082207        0.045076
H        2.431255       -0.400330        0.774365
H        2.402438        0.057716       -0.889628
H        1.773126        1.140804        0.358192
N        0.432971       -0.508468       -0.005523
N       -0.393832        0.444357       -0.127017
10
  Step 30: 30.0 fs
C       -1.849321       -0.037170        0.077961
H       -2.245471        0.527609        0.826304
H       -2.502041        0.272718       -0.756847
H       -1.846095       -1.243793        0.030783
C        1.811187        0.091219        0.049261
H        2.380631       -0.390481        0.722652
H        2.389440        0.052418       -0.881171
H        1.825020        1.085921        0.347212
N        0.432826       -0.515862       -0.003518
N       -0.400332        0.447591       -0.126387
10
  Step 31: 31.0 fs
C       -1.850249       -0.035835        0.072943
H       -2.201610        0.484171        0.824887
H       -2.496596        0.266568       -0.763171
H       -1.843432       -1.210003        0.062138
C        1.816660        0.100254        0.051081
H        2.348610       -0.405207        0.698154
H        2.371979        0.043727       -0.877971
H        1.870655        1.054200        0.340979
N        0.431553       -0.521330       -0.001668
N       -0.406421        0.449275       -0.125214
10
  Step 32: 32.0 fs
C       -1.848779       -0.038112        0.063452
H       -2.175411        0.461657        0.871185
H       -2.487316        0.261609       -0.774196
H       -1.843059       -1.156289        0.101034
C        1.820111        0.108111        0.049497
H        2.343951       -0.452937        0.710469
H        2.352511        0.031532       -0.883367
H        1.909440        1.065009        0.345773
N        0.429062       -0.524362       -0.000012
N       -0.411784        0.449170       -0.123560
10
  Step 33: 33.0 fs
C       -1.845369       -0.042463        0.050824
H       -2.162538        0.453866        0.951901
H       -2.475865        0.258790       -0.788504
H       -1.844526       -1.096023        0.144671
C        1.822149        0.113949        0.045804
H        2.356899       -0.522596        0.746069
H        2.332853        0.015950       -0.898784
H        1.941660        1.114202        0.361372
N        0.425336       -0.524627        0.001427
N       -0.416211        0.447181       -0.121507
10
  Step 34: 34.0 fs
C       -1.840840       -0.046150        0.037558
H       -2.154439        0.448342        1.038457
H       -2.463817        0.258737       -0.804319
H       -1.847319       -1.050295        0.191135
C        1.823990        0.117856        0.042108
H        2.373050       -0.594774        0.784565
H        2.313631       -0.002356       -0.922626
H        1.966405        1.178601        0.381562
N        0.420459       -0.522007        0.002657
N       -0.419604        0.443358       -0.119144
10
  Step 35: 35.0 fs
C       -1.835684       -0.047001        0.025402
H       -2.146178        0.438518        1.109221
H       -2.452381        0.261453       -0.819841
H       -1.851293       -1.038696        0.240171
C        1.826473        0.120258        0.039716
H        2.383600       -0.654856        0.812342
H        2.294344       -0.022062       -0.950438
H        1.982496        1.235871        0.399757
N        0.414624       -0.516583        0.003721
N       -0.421979        0.437901       -0.116553
10
  Step 36: 36.0 fs
C       -1.830128       -0.044796        0.015361
H       -2.136117        0.423246        1.152920
H       -2.442345        0.266423       -0.833504
H       -1.856569       -1.062574        0.290092
C        1.829962        0.121431        0.039043
H        2.384852       -0.694718        0.822826
H        2.274089       -0.041439       -0.976597
H        1.989509        1.272288        0.411595
N        0.408138       -0.508634        0.004693
N       -0.423450        0.431159       -0.113822
10
  Step 37: 37.0 fs
C       -1.824352       -0.041019        0.008266
H       -2.124135        0.403754        1.164780
H       -2.434121        0.272886       -0.844056
H       -1.862912       -1.105210        0.335041
C        1.834491        0.121454        0.040025
H        2.375927       -0.710601        0.813698
H        2.252283       -0.058748       -0.996182
H        1.987814        1.281379        0.414828
N        0.401410       -0.498616        0.005670
N       -0.424220        0.423623       -0.111054
10
  Step 38: 38.0 fs
C       -1.818575       -0.037343        0.004754
H       -2.110733        0.382022        1.143708
H       -2.427713        0.279981       -0.850467
H       -1.869609       -1.148181        0.367970
C        1.839873        0.120301        0.042388
H        2.357562       -0.701655        0.785315
H        2.228998       -0.072546       -1.006031
H        1.978369        1.261671        0.408788
N        0.394948       -0.487156        0.006762
N       -0.424589        0.415914       -0.108367
10
  Step 39: 39.0 fs
C       -1.813036       -0.034903        0.005036
H       -2.096937        0.360492        1.091846
H       -2.422726        0.286802       -0.851935
H       -1.875789       -1.179807        0.383905
C        1.845698        0.117912        0.045711
H        2.332137       -0.670099        0.740759
H        2.204997       -0.081871       -1.005352
H        1.962633        1.216133        0.394265
N        0.389339       -0.475030        0.008092
N       -0.424939        0.408755       -0.105891
10
  Step 40: 40.0 fs
C       -1.807911       -0.034396        0.008700
H       -2.084783        0.342702        1.016430
H       -2.418495        0.292470       -0.848060
H       -1.880674       -1.194681        0.380529
C        1.851255        0.114257        0.049265
H        2.304775       -0.623247        0.687445
H        2.181610       -0.086314       -0.995857
H        1.942610        1.153501        0.373876
N        0.385212       -0.463108        0.009787
N       -0.425702        0.402927       -0.103758
10
  Step 41: 41.0 fs
C       -1.803179       -0.036418        0.014440
H       -2.078448        0.334786        0.933781
H       -2.414306        0.296236       -0.839163
H       -1.883685       -1.191378        0.357711
C        1.855371        0.109409        0.051713
H        2.285274       -0.576934        0.639758
H        2.160570       -0.086056       -0.981594
H        1.920801        1.090884        0.352798
N        0.383147       -0.452254        0.011969
N       -0.427276        0.399175       -0.102083
10
  Step 42: 42.0 fs
C       -1.798474       -0.041698        0.019905
H       -2.085380        0.346917        0.871483
H       -2.409652        0.297617       -0.826597
H       -1.884520       -1.171321        0.317247
C        1.856488        0.103517        0.051193
H        2.287709       -0.554424        0.617853
H        2.143866       -0.081847       -0.968428
H        1.899652        1.052859        0.338388
N        0.383580       -0.443211        0.014745
N       -0.429928        0.398103       -0.100938
10
  Step 43: 43.0 fs
C       -1.793341       -0.050677        0.022952
H       -2.112768        0.388466        0.853577
H       -2.404461        0.296581       -0.812916
H       -1.883259       -1.139127        0.262902
C        1.853638        0.096439        0.046812
H        2.320151       -0.568661        0.632776
H        2.133490       -0.074845       -0.962815
H        1.880497        1.057832        0.336123
N        0.386687       -0.436477        0.018186
N       -0.433696        0.400057       -0.100336
10
  Step 44: 44.0 fs
C       -1.788034       -0.062197        0.023870
H       -2.157772        0.454501        0.873613
H       -2.399152        0.293708       -0.801475
H       -1.880564       -1.104764        0.200549
C        1.847433        0.087889        0.040060
H        2.373565       -0.606325        0.672822
H        2.130994       -0.066229       -0.969566
H        1.863587        1.099755        0.344370
N        0.392313       -0.432221        0.022308
N       -0.438339        0.405053       -0.100225
10
  Step 45: 45.0 fs
C       -1.783409       -0.073493        0.024402
H       -2.208842        0.527023        0.905929
H       -2.394268        0.290126       -0.795201
H       -1.877833       -1.084562        0.137370
C        1.839246        0.078263        0.033210
H        2.431349       -0.645356        0.717677
H        2.136739       -0.056690       -0.988933
H        1.849124        1.155074        0.356394
N        0.400000       -0.430282        0.027068
N       -0.443380        0.412768       -0.100500
10
  Step 46: 46.0 fs
C       -1.780153       -0.081922        0.025691
H       -2.255786        0.589476        0.931579
H       -2.389989        0.287101       -0.795498
H       -1.876606       -1.094543        0.079243
C        1.830276        0.068354        0.027548
H        2.480876       -0.671475        0.752920
H        2.149376       -0.046318       -1.015690
H        1.837477        1.202395        0.366041
N        0.409066       -0.430237        0.032371
N       -0.448206        0.422604       -0.101002
10
  Step 47: 47.0 fs
C       -1.778694       -0.086564        0.028129
H       -2.292759        0.631873        0.941984
H       -2.385926        0.285501       -0.802091
H       -1.877066       -1.135925        0.028786
C        1.821432        0.058856        0.023330
H        2.514990       -0.678463        0.771148
H        2.166214       -0.035045       -1.041686
H        1.828884        1.229141        0.369724
N        0.418701       -0.431511        0.038083
N       -0.452161        0.433803       -0.101536
10
  Step 48: 48.0 fs
C       -1.779355       -0.088265        0.031634
H       -2.316936        0.649310        0.934484
H       -2.381189        0.285389       -0.813480
H       -1.877757       -1.192802       -0.012824
C        1.813437        0.050280        0.020343
H        2.530177       -0.664754        0.769380
H        2.184161       -0.023119       -1.059527
H        1.823380        1.229765        0.365916
N        0.428073       -0.433520        0.044055
N       -0.454659        0.445573       -0.101913
10
  Step 49: 49.0 fs
C       -1.782315       -0.088310        0.035821
H       -2.327252        0.639954        0.909355
H       -2.374653        0.286023       -0.827626
H       -1.877029       -1.245898       -0.044166
C        1.806859        0.042998        0.018265
H        2.525353       -0.631537        0.747435
H        2.200457       -0.011149       -1.064508
H        1.820832        1.203470        0.354492
N        0.436399       -0.435748        0.050138
N       -0.455235        0.457168       -0.101960
10
  Step 50: 50.0 fs
C       -1.787531       -0.087639        0.040153
H       -2.324125        0.604317        0.869075
H       -2.365321        0.286231       -0.842617
H       -1.873964       -1.281717       -0.063893
C        1.802045        0.037264        0.016735
H        2.501966       -0.582561        0.707843
H        2.213097        0.000002       -1.055266
H        1.820959        1.153691        0.336510
N        0.442980       -0.437790        0.056192
N       -0.453577        0.467931       -0.101538
10
  Step 51: 51.0 fs
C       -1.794642       -0.086910        0.043930
H       -2.310232        0.546032        0.819362
H       -2.352639        0.284885       -0.857116
H       -1.868360       -1.293220       -0.071240
C        1.798928        0.033209        0.015199
H        2.465702       -0.525518        0.657430
H        2.221075        0.009347       -1.033839
H        1.823290        1.089279        0.314464
N        0.447249       -0.439360        0.062096
N       -0.449532        0.477328       -0.100539
10
  Step 52: 52.0 fs
C       -1.802819       -0.086872        0.046069
H       -2.292545        0.474161        0.771970
H       -2.336684        0.281269       -0.870496
H       -1.860434       -1.278252       -0.066178
C        1.796708        0.030783        0.012625
H        2.429459       -0.474165        0.609978
H        2.224560        0.015883       -1.005594
H        1.827174        1.026917        0.292886
N        0.448818       -0.440283        0.067758
N       -0.443107        0.484973       -0.098882
10
  Step 53: 53.0 fs
C       -1.810608       -0.088585        0.044852
H       -2.284414        0.405066        0.747489
H       -2.318231        0.275285       -0.882610
H       -1.850547       -1.239146       -0.049563
C        1.793812        0.029694        0.007524
H        2.413138       -0.447084        0.585572
H        2.224960        0.018706       -0.978634
H        1.831958        0.990228        0.278085
N        0.447513       -0.440470        0.073116
N       -0.434472        0.490638       -0.096507
10
  Step 54: 54.0 fs
C       -1.816400       -0.092720        0.038591
H       -2.300380        0.355266        0.767429
H       -2.298752        0.267496       -0.893510
H       -1.838943       -1.184071       -0.023412
C        1.789118        0.029386       -0.000725
H        2.429174       -0.455212        0.596727
H        2.224702        0.017067       -0.962427
H        1.837225        0.997384        0.274984
N        0.443379       -0.439914        0.078139
N       -0.423957        0.494256       -0.093373
10
  Step 55: 55.0 fs
C       -1.819883       -0.097905        0.027717
H       -2.339575        0.324928        0.829578
H       -2.280356        0.258969       -0.903556
H       -1.825514       -1.129809        0.009106
C        1.783432        0.029487       -0.010522
H        2.466812       -0.489865        0.633675
H        2.226090        0.010448       -0.964416
H        1.842529        1.043709        0.282435
N        0.436665       -0.438686        0.082809
N       -0.412048        0.495912       -0.089472
10
  Step 56: 56.0 fs
C       -1.822038       -0.101170        0.014723
H       -2.386186        0.302342        0.907909
H       -2.265523        0.250889       -0.913648
H       -1.809703       -1.100551        0.044921
C        1.778498        0.030320       -0.019549
H        2.505749       -0.533922        0.676888
H        2.229484       -0.001278       -0.985742
H        1.847179        1.106795        0.294289
N        0.427822       -0.436956        0.087129
N       -0.399364        0.495840       -0.084837
10
  Step 57: 57.0 fs
C       -1.823754       -0.100482        0.001887
H       -2.426232        0.279508        0.978068
H       -2.256590        0.244103       -0.925071
H       -1.790743       -1.112938        0.082523