10
  Step 0: 0.0 fs
C       -1.803707       -0.067738        0.000068
H       -2.311491        0.330680        0.889253
H       -2.311383        0.329924       -0.889479
H       -1.816432       -1.165820        0.000692
C        1.803678        0.067713        0.000031
H        2.310884       -0.329704        0.890041
H        2.312188       -0.330855       -0.888640
H        1.816234        1.165785       -0.000394
N        0.410951       -0.460073       -0.000166
N       -0.410928        0.460089       -0.000127
10
  Step 1: 1.0 fs
C       -1.804091       -0.066657       -0.002660
H       -2.315480        0.349377        0.873940
H       -2.290758        0.262084       -0.856963
H       -1.811999       -1.205746       -0.037006
C        1.797443        0.061174       -0.002336
H        2.374112       -0.329141        0.860429
H        2.279919       -0.317193       -0.817094
H        1.778748        1.096538       -0.015869
N        0.420726       -0.459834       -0.001901
N       -0.416076        0.474900        0.005544
10
  Step 2: 2.0 fs
C       -1.803565       -0.067133       -0.004124
H       -2.320083        0.366182        0.859496
H       -2.280540        0.204521       -0.843982
H       -1.806762       -1.234460       -0.070725
C        1.790550        0.053824       -0.002655
H        2.432617       -0.327298        0.831488
H        2.261306       -0.314810       -0.773049
H        1.742755        1.051428       -0.030709
N        0.429588       -0.459177       -0.003504
N       -0.420544        0.488893        0.011187
10
  Step 3: 3.0 fs
C       -1.801447       -0.069999       -0.003432
H       -2.325894        0.379624        0.846434
H       -2.288225        0.163723       -0.864924
H       -1.800044       -1.246039       -0.096732
C        1.782628        0.045149        0.000684
H        2.482048       -0.323022        0.804090
H        2.267381       -0.332823       -0.778183
H        1.709145        1.049168       -0.044935
N        0.436748       -0.457851       -0.004846
N       -0.423819        0.501412        0.016758
10
  Step 4: 4.0 fs
C       -1.797978       -0.075150       -0.001252
H       -2.333401        0.388685        0.834824
H       -2.310358        0.138915       -0.914417
H       -1.791331       -1.239080       -0.112094
C        1.774581        0.035462        0.006891
H        2.519161       -0.315818        0.779408
H        2.292545       -0.366852       -0.825612
H        1.679657        1.085478       -0.058722
N        0.441561       -0.455745       -0.005801
N       -0.425562        0.511973        0.022211
10
  Step 5: 5.0 fs
C       -1.794025       -0.081928        0.000742
H       -2.342846        0.392683        0.824268
H       -2.336204        0.126000       -0.973568
H       -1.780333       -1.215862       -0.115036
C        1.767931        0.025858        0.013636
H        2.542114       -0.306035        0.758643
H        2.320866       -0.404166       -0.890570
H        1.657333        1.138315       -0.071496
N        0.443577       -0.452837       -0.006262
N       -0.425603        0.520255        0.027501
10
  Step 6: 6.0 fs
C       -1.790344       -0.089429        0.001183
H       -2.354129        0.391209        0.814028
H       -2.356355        0.121453       -1.025421
H       -1.767004       -1.182622       -0.105207
C        1.763708        0.017549        0.018958
H        2.550622       -0.294750        0.743000
H        2.340133       -0.434933       -0.952681
H        1.644808        1.186562       -0.082273
N        0.442571       -0.449152       -0.006149
N       -0.423926        0.526089        0.032583
10
  Step 7: 7.0 fs
C       -1.787378       -0.096483       -0.000592
H       -2.366812        0.384155        0.803297
H       -2.365319        0.122748       -1.059911
H       -1.751416       -1.150136       -0.083707
C        1.762266        0.011410        0.021665
H        2.546078       -0.283570        0.733965
H        2.344476       -0.454235       -1.000414
H        1.643351        1.217279       -0.090261
N        0.438547       -0.444752       -0.005412
N       -0.420653        0.529446        0.037415
10
  Step 8: 8.0 fs
C       -1.785350       -0.101741       -0.004752
H       -2.380281        0.371860        0.791591
H       -2.360538        0.127789       -1.072326
H       -1.733558       -1.132303       -0.052580
C        1.763488        0.007934        0.021055
H        2.531374       -0.274419        0.733496
H        2.332075       -0.460200       -1.027914
H        1.653076        1.224355       -0.095053
N        0.431712       -0.439743       -0.004022
N       -0.416013        0.530424        0.041966
10
  Step 9: 9.0 fs
C       -1.784341       -0.104267       -0.011231
H       -2.393988        0.355255        0.779066
H       -2.341351        0.134655       -1.061587
H       -1.713392       -1.139060       -0.013804
C        1.767000        0.007291        0.016725
H        2.510088       -0.269181        0.743610
H        2.303331       -0.452563       -1.032446
H        1.673342        1.206348       -0.096618
N        0.422451       -0.434299       -0.001970
N       -0.410329        0.529253        0.046225
10
  Step 10: 10.0 fs
C       -1.784248       -0.104246       -0.019765
H       -2.407602        0.335845        0.766579
H       -2.308850        0.141740       -1.030053
H       -1.691503       -1.168007        0.030896
C        1.772353        0.009320        0.008615
H        2.485029       -0.269209        0.765211
H        2.260328       -0.432299       -1.013690
H        1.702913        1.165874       -0.095302
N        0.411307       -0.428674        0.000730
N       -0.404016        0.526300        0.050201
10
  Step 11: 11.0 fs
C       -1.784696       -0.102880       -0.029635
H       -2.420947        0.315420        0.755387
H       -2.266588        0.148293       -0.984985
H       -1.669552       -1.205930        0.078815
C        1.779117        0.013444       -0.002774
H        2.457001       -0.274899        0.796671
H        2.207275       -0.402214       -0.974917
H        1.739908        1.110798       -0.091830
N        0.398977       -0.423216        0.004036
N       -0.397588        0.522075        0.053920
10
  Step 12: 12.0 fs
C       -1.784984       -0.101627       -0.039369
H       -2.433784        0.295639        0.746590
H       -2.221816        0.155401       -0.941130
H       -1.649779       -1.238234        0.125866
C        1.786754        0.018587       -0.016039
H        2.425004       -0.285614        0.833352
H        2.151779       -0.368562       -0.926442
H        1.781879        1.056613       -0.087280
N        0.386311       -0.418353        0.007874
N       -0.391664        0.517219        0.057424
10
  Step 13: 13.0 fs
C       -1.784198       -0.101728       -0.046803
H       -2.445658        0.277820        0.740570
H       -2.185013        0.166569       -0.920324
H       -1.634200       -1.254977        0.167500
C        1.794370        0.023413       -0.028634
H        2.387702       -0.300133        0.868744
H        2.105695       -0.342887       -0.889999
H        1.826522        1.025858       -0.082732
N        0.374261       -0.414560        0.012141
N       -0.386942        0.512471        0.060764
10
  Step 14: 14.0 fs
C       -1.781762       -0.103908       -0.050183
H       -2.455984        0.263013        0.736786
H       -2.163811        0.184903       -0.939231
H       -1.624155       -1.251770        0.199748
C        1.800833        0.027193       -0.037530
H        2.344875       -0.317248        0.896500
H        2.081526       -0.339428       -0.893706
H        1.872681        1.036136       -0.078534
N        0.363797       -0.412291        0.016710
N       -0.384110        0.508592        0.063993
10
  Step 15: 15.0 fs
C       -1.778027       -0.108005       -0.049691
H       -2.464315        0.252203        0.734050
H       -2.155777        0.207595       -0.992054
H       -1.620154       -1.229004        0.219856
C        1.805699        0.030232       -0.041702
H        2.297963       -0.336144        0.912335
H        2.082157       -0.362400       -0.944409
H        1.919444        1.083146       -0.074321
N        0.355750       -0.411881        0.021452
N       -0.383735        0.506227        0.067162
10
  Step 16: 16.0 fs
C       -1.773899       -0.113090       -0.046970
H       -2.470480        0.246368        0.730916
H       -2.152527        0.227091       -1.056823
H       -1.621823       -1.191574        0.226674
C        1.809475        0.033096       -0.043025
H        2.249888       -0.356446        0.914898
H        2.099470       -0.400831       -1.017009
H        1.964529        1.145191       -0.069892
N        0.350683       -0.413443        0.026232
N       -0.386142        0.505777        0.070302
10
  Step 17: 17.0 fs
C       -1.770173       -0.117889       -0.043654
H       -2.474588        0.246345        0.726037
H       -2.147416        0.236897       -1.113557
H       -1.627824       -1.149519        0.221040
C        1.812754        0.036197       -0.043835
H        2.204580       -0.378168        0.905677
H        2.124294       -0.441172       -1.083038
H        2.004909        1.200880       -0.065430
N        0.348811       -0.416786        0.030909
N       -0.391346        0.507305        0.073412
10
  Step 18: 18.0 fs
C       -1.767381       -0.120944       -0.040895
H       -2.476978        0.252598        0.718465
H       -2.137245        0.233673       -1.150329
H       -1.635992       -1.117777        0.205891
C        1.815800        0.039772       -0.045643
H        2.166406       -0.401758        0.888390
H        2.150678       -0.474599       -1.125855
H        2.038057        1.236637       -0.061170
N        0.349998       -0.421411        0.035345
N       -0.399046        0.510513        0.076461
10
  Step 19: 19.0 fs
C       -1.765831       -0.120927       -0.039427
H       -2.478146        0.265020        0.707814
H       -2.121174        0.216675       -1.161721
H       -1.644123       -1.111588        0.185130
C        1.818660        0.043894       -0.049260
H        2.139418       -0.427914        0.867772
H        2.175114       -0.496412       -1.138310
H        2.062304        1.245822       -0.057252
N        0.353804       -0.426580        0.039416
N       -0.408679        0.514812        0.079411
10
  Step 20: 20.0 fs
C       -1.765577       -0.117467       -0.039513
H       -2.478714        0.282889        0.694314
H       -2.099870        0.187119       -1.147036
H       -1.651457       -1.136039        0.161111
C        1.821325        0.048437       -0.054992
H        2.126466       -0.456906        0.847712
H        2.195473       -0.504380       -1.118803
H        2.076797        1.226800       -0.053737
N        0.359600       -0.431452        0.043017
N       -0.419517        0.519457        0.082226
10
  Step 21: 21.0 fs
C       -1.766416       -0.111590       -0.040897
H       -2.479416        0.304986        0.678722
H       -2.075282        0.147957       -1.110189
H       -1.659082       -1.180809        0.133937
C        1.823806        0.052975       -0.062661
H        2.128553       -0.487682        0.829679
H        2.210564       -0.497971       -1.069531
H        2.081581        1.182465       -0.050616
N        0.366701       -0.435227        0.046072
N       -0.430777        0.523703        0.084881
10
  Step 22: 22.0 fs
C       -1.767976       -0.105025       -0.042840
H       -2.481000        0.329782        0.662068
H       -2.050911        0.103879       -1.061270
H       -1.668539       -1.228678        0.103765
C        1.826050        0.056697       -0.071565
H        2.144746       -0.517572        0.812739
H        2.220449       -0.478814       -0.997117
H        2.078008        1.121514       -0.047727
N        0.374451       -0.437251        0.048532
N       -0.441693        0.526905        0.087364
10
  Step 23: 23.0 fs
C       -1.769782       -0.099362       -0.044029
H       -2.484070        0.355640        0.645308
H       -2.032134        0.061014       -1.018580
H       -1.680661       -1.265505        0.072228
C        1.827719        0.058400       -0.080412
H        2.172607       -0.542999        0.795099
H        2.227770       -0.452485       -0.915193
H        2.069457        1.060952       -0.044483
N        0.382284       -0.437070        0.050365
N       -0.451583        0.528582        0.089675
10
  Step 24: 24.0 fs
C       -1.771365       -0.095676       -0.042850
H       -2.488953        0.380989        0.629034
H       -2.024908        0.025205       -1.004695
H       -1.695459       -1.283202        0.042117
C        1.827945        0.056879       -0.087236
H        2.208864       -0.560594        0.775730
H        2.239869       -0.430746       -0.847035
H        2.061232        1.024933       -0.039609
N        0.389761       -0.434461        0.051549
N       -0.459889        0.528440        0.091805
10
  Step 25: 25.0 fs
C       -1.772593       -0.094367       -0.038690
H       -2.495670        0.404470        0.613421
H       -2.031481       -0.000784       -1.030106
H       -1.712409       -1.279016        0.016613
C        1.825649        0.051884       -0.089923
H        2.250079       -0.568139        0.755064
H        2.267662       -0.428459       -0.819344
H        2.057446        1.031186       -0.031766
N        0.396569       -0.429429        0.052066
N       -0.466194        0.526375        0.093744
10
  Step 26: 26.0 fs
C       -1.773861       -0.095265       -0.032826
H       -2.503945        0.424980        0.598331
H       -2.047894       -0.017209       -1.082265
H       -1.730744       -1.254370       -0.001272
C        1.820854        0.044387       -0.087924
H        2.293150       -0.564997        0.734779
H        2.313973       -0.449030       -0.839986
H        2.057042        1.073677       -0.021240
N        0.402488       -0.422190        0.051913
N       -0.470226        0.522460        0.095473
10
  Step 27: 27.0 fs
C       -1.775752       -0.097840       -0.027231
H       -2.513177        0.441668        0.583407
H       -2.067767       -0.024934       -1.139442
H       -1.749659       -1.214730       -0.009133
C        1.815142        0.035533       -0.082778
H        2.335541       -0.551954        0.716956
H        2.366509       -0.479289       -0.890986
H        2.055614        1.129628       -0.010059
N        0.407374       -0.413139        0.051115
N       -0.471869        0.516919        0.096971
10
  Step 28: 28.0 fs
C       -1.778694       -0.101179       -0.023366
H       -2.522521        0.453971        0.568283
H       -2.086076       -0.024668       -1.185189
H       -1.768450       -1.170497       -0.005470
C        1.810261        0.026288       -0.076355
H        2.375300       -0.530792        0.703306
H        2.410042       -0.504675       -0.950169
H        2.049552        1.178091       -0.000453
N        0.411174       -0.402812        0.049717
N       -0.471181        0.510105        0.098220
10
  Step 29: 29.0 fs
C       -1.782881       -0.103973       -0.022010
H       -2.531129        0.461768        0.552877
H       -2.099743       -0.017334       -1.210586
H       -1.786678       -1.136843        0.010317
C        1.807291        0.017501       -0.069909
H        2.411005       -0.503892        0.694991
H        2.435059       -0.517129       -1.003035
H        2.037227        1.206618        0.005958
N        0.413945       -0.391865        0.047780
N       -0.468388        0.502479        0.099213
10
  Step 30: 30.0 fs
C       -1.788308       -0.104959       -0.023526
H       -2.538464        0.465584        0.537677
H       -2.107015       -0.004305       -1.211766
H       -1.804288       -1.128355        0.038154
C        1.806720        0.009865       -0.064179
H        2.441653       -0.473915        0.692731
H        2.437328       -0.513658       -1.041607
H        2.018519        1.209852        0.008195
N        0.415859       -0.381040        0.045370
N       -0.463865        0.494581        0.099964
10
  Step 31: 31.0 fs
C       -1.794826       -0.103820       -0.027984
H       -2.544517        0.466661        0.523861
H       -2.107099        0.012653       -1.188400
H       -1.821389       -1.148438        0.077219
C        1.808672        0.003872       -0.059613
H        2.466483       -0.443462        0.696786
H        2.415841       -0.493995       -1.061635
H        1.994293        1.187358        0.005779
N        0.417178       -0.371138        0.042561
N       -0.458096        0.486999        0.100504
10
  Step 32: 32.0 fs
C       -1.802189       -0.101499       -0.035060
H       -2.549711        0.466715        0.513155
H       -2.100225        0.031586       -1.143871
H       -1.837833       -1.185635        0.124992
C        1.813036       -0.000258       -0.056463
H        2.484859       -0.414824        0.706875
H        2.371698       -0.459468       -1.061193
H        1.966191        1.143074       -0.001324
N        0.418222       -0.362976        0.039423
N       -0.451631        0.480342        0.100887
10
  Step 33: 33.0 fs
C       -1.810052       -0.099389       -0.043820
H       -2.554444        0.467369        0.507381
H       -2.088170        0.050757       -1.087080
H       -1.853194       -1.223051        0.176999
C        1.819467       -0.002675       -0.054755
H        2.496235       -0.389823        0.722054
H        2.308181       -0.413032       -1.041055
H        1.936571        1.086180       -0.012613
N        0.419319       -0.357327        0.036027
N       -0.445037        0.475176        0.101182
10
  Step 34: 34.0 fs
C       -1.817927       -0.098593       -0.052531
H       -2.558579        0.469605        0.507818
H       -2.075032        0.069493       -1.035079
H       -1.867059       -1.247445        0.227920
C        1.827306       -0.004003       -0.054096
H        2.500280       -0.369720        0.740651
H        2.231787       -0.360156       -1.007050
H        1.908321        1.032939       -0.026879
N        0.420737       -0.354828        0.032454
N       -0.438834        0.471959        0.101456
10
  Step 35: 35.0 fs
C       -1.825239       -0.099773       -0.058879
H       -2.561221        0.473542        0.514618
H       -2.066741        0.088835       -1.010980
H       -1.879158       -1.251464        0.272790
C        1.835539       -0.005102       -0.053327
H        2.497091       -0.355203        0.760300
H        2.153228       -0.309913       -0.974169
H        1.884031        1.004715       -0.042281
N        0.422612       -0.355883        0.028799
N       -0.433403        0.470954        0.101768
10
  Step 36: 36.0 fs
C       -1.831635       -0.103090       -0.061264
H       -2.560997        0.478697        0.526605
H       -2.067267        0.109754       -1.029139
H       -1.889324       -1.232894        0.307719
C        1.843018       -0.006185       -0.050452
H        2.487450       -0.346564        0.778305
H        2.085565       -0.273784       -0.967238
H        1.864848        1.016169       -0.056933
N        0.424899       -0.360585        0.025180
N       -0.428919        0.472168        0.102157
10
  Step 37: 37.0 fs
C       -1.837246       -0.108000       -0.060140
H       -2.556630        0.484478        0.541622
H       -2.074969        0.129563       -1.079947
H       -1.897437       -1.194037        0.330429
C        1.849053       -0.006267       -0.044130
H        2.473085       -0.344018        0.792531
H        2.036573       -0.258551       -1.003551
H        1.850684        1.061972       -0.069319
N        0.427370       -0.368699        0.021752
N       -0.425351        0.475347        0.102626
10
  Step 38: 38.0 fs
C       -1.842399       -0.113335       -0.057239
H       -2.547402        0.490559        0.557084
H       -2.085380        0.143042       -1.140162
H       -1.903492       -1.142161        0.340836
C        1.853576       -0.004132       -0.035608
H        2.456672       -0.347881        0.802329
H        2.005156       -0.260617       -1.070669
H        1.841482        1.122767       -0.078157
N        0.429689       -0.379708        0.018683
N       -0.422505        0.480009        0.103138
10
  Step 39: 39.0 fs
C       -1.847242       -0.117537       -0.054232
H       -2.533440        0.497052        0.570611
H       -2.095086        0.146106       -1.190143
H       -1.907763       -1.090589        0.341837
C        1.856577        0.000959       -0.027454
H        2.441288       -0.358429        0.808428
H        1.988035       -0.271989       -1.140968
H        1.837392        1.179658       -0.082415
N        0.431503       -0.392896        0.016114
N       -0.420106        0.485520        0.103621
10
  Step 40: 40.0 fs
C       -1.851691       -0.118856       -0.052392
H       -2.515776        0.504466        0.580564
H       -2.102382        0.136945       -1.218458
H       -1.910874       -1.057483        0.339275
C        1.857933        0.009262       -0.021563
H        2.429455       -0.375498        0.811737
H        1.983282       -0.286308       -1.193808
H        1.838381        1.220133       -0.081453
N        0.432509       -0.407450        0.014136
N       -0.417860        0.491179        0.103975
10
  Step 41: 41.0 fs
C       -1.855536       -0.116023       -0.052510
H       -2.496194        0.513501        0.586319
H       -2.106688        0.115614       -1.220077
H       -1.913429       -1.057345        0.338779
C        1.857588        0.020631       -0.018801
H        2.422260       -0.398044        0.812038
H        1.989717       -0.299537       -1.218737
H        1.844086        1.237589       -0.075015
N        0.432464       -0.422537        0.012791
N       -0.415497        0.496290        0.104101
10
  Step 42: 42.0 fs
C       -1.858559       -0.109241       -0.054589
H       -2.476945        0.524815        0.588264
H       -2.108160        0.083657       -1.194879
H       -1.915348       -1.088791        0.340577
C        1.855662        0.034561       -0.019292
H        2.419141       -0.423917        0.807622
H        2.006223       -0.309122       -1.211924
H        1.853849        1.229992       -0.063200
N        0.431201       -0.437376        0.012086
N       -0.412800        0.500230        0.103903
10
  Step 43: 43.0 fs
C       -1.860555       -0.100061       -0.057848
H       -2.460338        0.538761        0.587505
H       -2.107735        0.043910       -1.147869
H       -1.915987       -1.135697        0.340001
C        1.852430        0.050174       -0.022709
H        2.418415       -0.450111        0.796114
H        2.031533       -0.313407       -1.173706
H        1.866764        1.199793       -0.046434
N        0.428631       -0.451274        0.011998
N       -0.409629        0.502482        0.103295
10
  Step 44: 44.0 fs
C       -1.861249       -0.090270       -0.060943
H       -2.448241        0.555141        0.585283
H       -2.107633        0.000330       -1.091092
H       -1.914820       -1.179909        0.332710
C        1.848227        0.066167       -0.028414
H        2.418100       -0.473389        0.775824
H        2.064308       -0.311662       -1.108399
H        1.881763        1.155279       -0.025374
N        0.424757       -0.463655        0.012473
N       -0.405936        0.502663        0.102204
10
  Step 45: 45.0 fs
C       -1.860261       -0.081186       -0.062038
H       -2.441666        0.573071        0.582346
H       -2.111853       -0.042765       -1.044793
H       -1.911674       -1.208808        0.317293
C        1.843303        0.080764       -0.035429
H        2.416582       -0.491019        0.746882
H        2.103628       -0.304815       -1.026065
H        1.897917        1.112597       -0.000585
N        0.419686       -0.474079        0.013422
N       -0.401772        0.500534        0.100565
10
  Step 46: 46.0 fs
C       -1.857216       -0.073477       -0.059354
H       -2.440678        0.591130        0.578688
H       -2.124930       -0.082315       -1.030315
H       -1.906572       -1.216038        0.294988
C        1.837625        0.092101       -0.042323
H        2.413013       -0.501412        0.711881
H        2.150207       -0.296760       -0.944888
H        1.914887        1.093247        0.028053
N        0.413648       -0.482262        0.014716
N       -0.397292        0.496025        0.098321
10
  Step 47: 47.0 fs
C       -1.852121       -0.067276       -0.052621
H       -2.444633        0.607727        0.573794
H       -2.147494       -0.116877       -1.052371
H       -1.899639       -1.200198        0.268749
C        1.830782        0.099418       -0.047407
H        2.407522       -0.504607        0.675968
H        2.207534       -0.294246       -0.888769
H        1.932611        1.110450        0.061094
N        0.406990       -0.488102        0.016180
N       -0.392732        0.489245        0.095440
10
  Step 48: 48.0 fs
C       -1.845516       -0.062432       -0.043421
H       -2.452438        0.621437        0.567032
H       -2.174307       -0.144578       -1.094761
H       -1.891118       -1.164312        0.242585
C        1.822436        0.103705       -0.049730
H        2.401168       -0.502320        0.645984
H        2.278324       -0.301119       -0.872660
H        1.949823        1.155960        0.097475
N        0.400157       -0.491697        0.017614
N       -0.388406        0.480495        0.091913
10
  Step 49: 49.0 fs
C       -1.838093       -0.058500       -0.033775
H       -2.462710        0.631153        0.557903
H       -2.198480       -0.162813       -1.137219
H       -1.881495       -1.116431        0.221196
C        1.813085        0.106350       -0.049974
H        2.395466       -0.497252        0.628529
H        2.356645       -0.311935       -0.889675
H        1.963833        1.209100        0.133875
N        0.393643       -0.493336        0.018821
N       -0.384687        0.470256        0.087762
10
  Step 50: 50.0 fs
C       -1.830392       -0.054578       -0.025222
H       -2.473944        0.636240        0.546236
H       -2.214935       -0.169638       -1.166205
H       -1.871642       -1.070328        0.209660
C        1.803894        0.108168       -0.049504
H        2.391402       -0.491634        0.627543
H        2.429861       -0.317172       -0.922061
H        1.971883        1.251958        0.166550
N        0.387958       -0.493470        0.019628
N       -0.381997        0.459167        0.083028
10
  Step 51: 51.0 fs
C       -1.822754       -0.049476       -0.018758
H       -2.484790        0.636760        0.532434
H       -2.220764       -0.164387       -1.175080
H       -1.862722       -1.042912        0.212653
C        1.796006        0.109514       -0.049185
H        2.388497       -0.486012        0.642968
H        2.486884       -0.310492       -0.955278
H        1.972009        1.274106        0.192611
N        0.383602       -0.492674        0.019893
N       -0.380773        0.447978        0.077772
10
  Step 52: 52.0 fs
C       -1.815399       -0.042561       -0.014885
H       -2.494335        0.633655        0.517623
H       -2.214593       -0.147552       -1.161671
H       -1.855747       -1.044451        0.232423
C        1.790273        0.110455       -0.049235
H        2.384807       -0.479275        0.671254
H        2.521045       -0.289655       -0.980493
H        1.963147        1.271440        0.210242
N        0.381026       -0.491570        0.019514
N       -0.381403        0.437474        0.072063
10
  Step 53: 53.0 fs
C       -1.808481       -0.034516       -0.013525
H       -2.502220        0.628699        0.503629
H       -2.196304       -0.120610       -1.127260
H       -1.851139       -1.069516        0.266838
C        1.787235        0.110866       -0.049509
H        2.377883       -0.469708        0.706998
H        2.529223       -0.255012       -0.992711
H        1.945024        1.244604        0.218652
N        0.380571       -0.490727        0.018428
N       -0.384139        0.428358        0.065972
10
  Step 54: 54.0 fs
C       -1.802076       -0.026839       -0.014018
H       -2.508429        0.624044        0.492677
H       -2.167327       -0.085988       -1.077211
H       -1.848816       -1.102367        0.310264
C        1.787084        0.110447       -0.049753
H        2.365896       -0.456083        0.744644
H        2.510917       -0.208522       -0.989561
H        1.918149        1.198858        0.218253
N        0.382402       -0.490562        0.016613
N       -0.389020        0.421146        0.059571
10
  Step 55: 55.0 fs
C       -1.796110       -0.020841       -0.015122
H       -2.512806        0.621527        0.486850
H       -2.131490       -0.046986       -1.023102
H       -1.848575       -1.128100        0.356136
C        1.789608        0.108647       -0.049724
H        2.348264       -0.438177        0.779505
H        2.468243       -0.153491       -0.971364
H        1.883801        1.145267        0.211148
N        0.386459       -0.491275        0.014088
N       -0.395822        0.416098        0.052935
10
  Step 56: 56.0 fs
C       -1.790350       -0.017258       -0.015002
H       -2.514705        0.622182        0.487503
H       -2.095457       -0.007135       -0.983877
H       -1.850250       -1.137425        0.398621
C        1.794121        0.104643       -0.049118
H        2.325861       -0.416796        0.808263
H        2.407071       -0.094824       -0.942862
H        1.843640        1.101142        0.201539
N        0.392446       -0.492839        0.010899
N       -0.404044        0.413195        0.046143
10
  Step 57: 57.0 fs
C       -1.784604       -0.016363       -0.011808
H       -2.512952        0.626103        0.494820
H       -2.066429        0.031066       -0.979073
H       -1.853708       -1.126463        0.433194