10
  Step 0: 0.0 fs
C       -1.803709       -0.067738        0.000066
H       -2.311483        0.330670        0.889273
H       -2.311377        0.329949       -0.889470
H       -1.816438       -1.165806        0.000661
C        1.803678        0.067712        0.000027
H        2.310875       -0.329683        0.890047
H        2.312191       -0.330864       -0.888633
H        1.816218        1.165792       -0.000405
N        0.410953       -0.460073       -0.000161
N       -0.410927        0.460086       -0.000127
10
  Step 1: 1.0 fs
C       -1.811160       -0.076764        0.005652
H       -2.319159        0.317048        0.853656
H       -2.327086        0.333633       -0.940479
H       -1.855155       -1.162140       -0.006545
C        1.803414        0.072053       -0.007160
H        2.342269       -0.366988        0.888462
H        2.343970       -0.290670       -0.828741
H        1.823761        1.063415       -0.034639
N        0.405572       -0.453028        0.002611
N       -0.399555        0.464669        0.003493
10
  Step 2: 2.0 fs
C       -1.818534       -0.085196        0.009424
H       -2.332171        0.308419        0.827501
H       -2.336250        0.332727       -0.979566
H       -1.891762       -1.162257       -0.013528
C        1.803029        0.072844       -0.012566
H        2.367573       -0.398566        0.881413
H        2.381685       -0.259958       -0.785694
H        1.831360        1.007908       -0.066335
N        0.400830       -0.446568        0.005270
N       -0.389017        0.469509        0.007122
10
  Step 3: 3.0 fs
C       -1.825625       -0.092709        0.010269
H       -2.354445        0.308556        0.817357
H       -2.335671        0.325133       -1.000278
H       -1.924493       -1.168466       -0.020031
C        1.802320        0.067156       -0.014972
H        2.382743       -0.420131        0.866869
H        2.429911       -0.245609       -0.771043
H        1.839489        1.037407       -0.094961
N        0.397328       -0.441227        0.007706
N       -0.380063        0.474861        0.010763
10
  Step 4: 4.0 fs
C       -1.832451       -0.099069        0.008029
H       -2.385353        0.317458        0.822428
H       -2.324513        0.310546       -1.000418
H       -1.951842       -1.180582       -0.025561
C        1.801740        0.057082       -0.014679
H        2.386114       -0.429753        0.846062
H        2.484911       -0.247533       -0.783341
H        1.847509        1.125716       -0.118368
N        0.395493       -0.437411        0.009830
N       -0.373270        0.480884        0.014417
10
  Step 5: 5.0 fs
C       -1.839294       -0.104093        0.003377
H       -2.419764        0.331370        0.835368
H       -2.303833        0.290153       -0.981535
H       -1.972486       -1.196068       -0.029347
C        1.802272        0.046379       -0.013131
H        2.378361       -0.427855        0.822718
H        2.535569       -0.260420       -0.811756
H        1.854171        1.223714       -0.133003
N        0.395531       -0.435301        0.011584
N       -0.368994        0.487571        0.018084
10
  Step 6: 6.0 fs
C       -1.846396       -0.107775       -0.002539
H       -2.451243        0.345307        0.847297
H       -2.276703        0.266748       -0.949416
H       -1.985347       -1.211225       -0.030494
C        1.804627        0.037227       -0.011859
H        2.362612       -0.416980        0.802687
H        2.570861       -0.278378       -0.844856
H        1.858974        1.302140       -0.137304
N        0.397428       -0.434810        0.012932
N       -0.367338        0.494716        0.021760
10
  Step 7: 7.0 fs
C       -1.853662       -0.110383       -0.008274
H       -2.474814        0.355246        0.851561
H       -2.248711        0.245185       -0.915513
H       -1.989726       -1.222554       -0.028242
C        1.808928        0.030643       -0.012111
H        2.344108       -0.401250        0.793316
H        2.583949       -0.297147       -0.874480
H        1.861988        1.348446       -0.131532
N        0.400968       -0.435615        0.013857
N       -0.368169        0.501937        0.025447
10
  Step 8: 8.0 fs
C       -1.860622       -0.112410       -0.012191
H       -2.487774        0.358869        0.844667
H       -2.227386        0.231964       -0.896317
H       -1.985440       -1.227697       -0.022192
C        1.814894        0.027147       -0.014771
H        2.328484       -0.384979        0.801380
H        2.572143       -0.314162       -0.895548
H        1.863495        1.357945       -0.116800
N        0.405777       -0.437241        0.014352
N       -0.371172        0.508727        0.029142
10
  Step 9: 9.0 fs
C       -1.866717       -0.114263       -0.013099
H       -2.489755        0.355648        0.826210
H       -2.218586        0.232028       -0.905586
H       -1.972860       -1.225940       -0.012435
C        1.822191        0.026894       -0.020094
H        2.318686       -0.370387        0.828818
H        2.535973       -0.328167       -0.905349
H        1.863849        1.329714       -0.094691
N        0.411381       -0.439168        0.014421
N       -0.375921        0.514549        0.032845
10
  Step 10: 10.0 fs
C       -1.871702       -0.115861       -0.011263
H       -2.482725        0.346898        0.798845
H       -2.221849        0.244113       -0.942339
H       -1.952847       -1.218407        0.000467
C        1.830590        0.029666       -0.027481
H        2.313497       -0.356679        0.870136
H        2.478955       -0.339129       -0.903659
H        1.863484        1.265744       -0.067228
N        0.417267       -0.440904        0.014080
N       -0.381942        0.518904        0.036557
10
  Step 11: 11.0 fs
C       -1.875535       -0.116719       -0.008334
H       -2.471125        0.335912        0.768344
H       -2.231558        0.261383       -0.991836
H       -1.926610       -1.207868        0.015603
C        1.839757        0.034859       -0.035594
H        2.309530       -0.341755        0.914847
H        2.407964       -0.348620       -0.893805
H        1.862964        1.173065       -0.036986
N        0.422929       -0.442035        0.013360
N       -0.388768        0.521388        0.040282
10
  Step 12: 12.0 fs
C       -1.877999       -0.116409       -0.006294
H       -2.461604        0.327722        0.743051
H       -2.241892        0.276463       -1.037730
H       -1.895549       -1.197990        0.031892
C        1.849005        0.041206       -0.042674
H        2.304066       -0.324530        0.952461
H        2.333345       -0.360463       -0.884060
H        1.863078        1.069828       -0.006914
N        0.427902       -0.442247        0.012321
N       -0.395977        0.521733        0.044018
10
  Step 13: 13.0 fs
C       -1.878707       -0.114778       -0.006656
H       -2.460809        0.327340        0.730977
H       -2.249108        0.284275       -1.068951
H       -1.861143       -1.191953        0.048313
C        1.857406        0.046017       -0.047032
H        2.296146       -0.305674        0.975491
H        2.266453       -0.380079       -0.886086
H        1.864802        0.994206        0.020915
N        0.431794       -0.441323        0.011046
N       -0.403216        0.519816        0.047757
10
  Step 14: 14.0 fs
C       -1.877467       -0.111821       -0.010040
H       -2.471410        0.336618        0.734963
H       -2.251390        0.282199       -1.080067
H       -1.824974       -1.190955        0.064055
C        1.864273        0.045762       -0.047874
H        2.286396       -0.287263        0.980356
H        2.214540       -0.410641       -0.907490
H        1.868929        0.993275        0.046932
N        0.434294       -0.439137        0.009639
N       -0.410200        0.515666        0.051483
10
  Step 15: 15.0 fs
C       -1.874498       -0.107551       -0.016084
H       -2.489989        0.352665        0.750411
H       -2.248252        0.269529       -1.069999
H       -1.788856       -1.193606        0.078485
C        1.869427        0.040486       -0.045518
H        2.276607       -0.272215        0.967387
H        2.178307       -0.449166       -0.944714
H        1.875799        1.066241        0.069714
N        0.435177       -0.435675        0.008206
N       -0.416714        0.509452        0.055173
10
  Step 16: 16.0 fs
C       -1.870231       -0.102095       -0.023749
H       -2.509630        0.369986        0.768739
H       -2.240458        0.247303       -1.041750
H       -1.754867       -1.196683        0.091074
C        1.872897        0.033679       -0.040934
H        2.269551       -0.263650        0.940801
H        2.154991       -0.487993       -0.985893
H        1.885388        1.166694        0.083667
N        0.434344       -0.431025        0.006840
N       -0.422612        0.501482        0.058794
10
  Step 17: 17.0 fs
C       -1.864952       -0.095838       -0.031639
H       -2.523783        0.383592        0.782123
H       -2.230444        0.218530       -1.003349
H       -1.725173       -1.196638        0.101374
C        1.874612        0.027978       -0.035611
H        2.268926       -0.264465        0.908672
H        2.141700       -0.519401       -1.018737
H        1.897267        1.257982        0.085366
N        0.431861       -0.425366        0.005604
N       -0.427816        0.492185        0.062313
10
  Step 18: 18.0 fs
C       -1.858633       -0.089412       -0.038102
H       -2.528099        0.390384        0.785599
H       -2.222791        0.188225       -0.968756
H       -1.701711       -1.191008        0.109095
C        1.874337        0.024600       -0.031155
H        2.278915       -0.277170        0.881516
H        2.136434       -0.538161       -1.035056
H        1.910815        1.322388        0.074727
N        0.427955       -0.418989        0.004542
N       -0.432334        0.482112        0.065694
10
  Step 19: 19.0 fs
C       -1.850999       -0.083510       -0.041509
H       -2.520726        0.389312        0.777270
H       -2.223377        0.162025       -0.954891
H       -1.685887       -1.179228        0.114220
C        1.871898        0.024026       -0.028672
H        2.302119       -0.302836        0.866974
H        2.137834       -0.541736       -1.031311
H        1.925404        1.352464        0.053303
N        0.422978       -0.412301        0.003674
N       -0.436259        0.471914        0.068904
10
  Step 20: 20.0 fs
C       -1.841896       -0.078551       -0.041151
H       -2.502250        0.381233        0.758137
H       -2.235243        0.142806       -0.970891
H       -1.678367       -1.162974        0.117094
C        1.867454        0.026313       -0.028262
H        2.336879       -0.339483        0.864298
H        2.144922       -0.529854       -1.008032
H        1.940407        1.345377        0.023209
N        0.417375       -0.405816        0.003002
N       -0.439758        0.462308        0.071923
10
  Step 21: 21.0 fs
C       -1.831614       -0.074553       -0.037985
H       -2.475904        0.368974        0.732219
H       -2.254759        0.129075       -1.009464
H       -1.679019       -1.145964        0.118369
C        1.861531        0.031232       -0.029099
H        2.377092       -0.381883        0.865470
H        2.157152       -0.504510       -0.969661
H        1.955178        1.301056       -0.013183
N        0.411639       -0.400115        0.002500
N       -0.443040        0.454029        0.074752
10
  Step 22: 22.0 fs
C       -1.820630       -0.071428       -0.033996
H       -2.447720        0.357302        0.706478
H       -2.274312        0.117788       -1.054180
H       -1.687046       -1.133078        0.118801
C        1.854733        0.038403       -0.029940
H        2.415180       -0.423563        0.861670
H        2.174772       -0.470483       -0.924930
H        1.969092        1.223036       -0.053132
N        0.406275       -0.395791        0.002119
N       -0.446319        0.447772        0.077403
10
  Step 23: 23.0 fs
C       -1.809244       -0.069263       -0.031132
H       -2.425633        0.352179        0.689572
H       -2.287155        0.106985       -1.090647
H       -1.701282       -1.128690        0.119013
C        1.847447        0.047101       -0.029542
H        2.444779       -0.458779        0.847492
H        2.199108       -0.435348       -0.886157
H        1.981905        1.122412       -0.093450
N        0.401744       -0.393345        0.001787
N       -0.449748        0.444095        0.079897
10
  Step 24: 24.0 fs
C       -1.797701       -0.068285       -0.030630
H       -2.415811        0.358123        0.687649
H       -2.289187        0.096117       -1.110243
H       -1.720474       -1.134685        0.119344
C        1.839710        0.055462       -0.026964
H        2.461793       -0.483354        0.821521
H        2.231672       -0.407484       -0.865266
H        1.994970        1.025900       -0.131334
N        0.398401       -0.393083        0.001422
N       -0.453355        0.443326        0.082240
10
  Step 25: 25.0 fs
C       -1.786560       -0.068656       -0.032682
H       -2.418417        0.375173        0.699776
H       -2.278730        0.085570       -1.109520
H       -1.743368       -1.149406        0.119885
C        1.831268        0.059870       -0.021877
H        2.464440       -0.494896        0.785528
H        2.271438       -0.391776       -0.866822
H        2.013205        0.978740       -0.167126
N        0.396453       -0.395041        0.000961
N       -0.457004        0.445511        0.084413
10
  Step 26: 26.0 fs
C       -1.776703       -0.070390       -0.036593
H       -2.427807        0.398918        0.718496
H       -2.256065        0.076279       -1.089098
H       -1.768552       -1.168336        0.120620
C        1.822097        0.057868       -0.014823
H        2.453364       -0.493294        0.744058
H        2.313070       -0.387406       -0.885714
H        2.040995        1.008636       -0.203204
N        0.395900       -0.398988        0.000376
N       -0.460381        0.450401        0.086374
10
  Step 27: 27.0 fs
C       -1.768956       -0.073442       -0.041217
H       -2.436827        0.423457        0.734867
H       -2.223534        0.069612       -1.053786
H       -1.794344       -1.186013        0.121573
C        1.813035        0.051707       -0.007581
H        2.432311       -0.481604        0.704752
H        2.349006       -0.390068       -0.912290
H        2.072483        1.086995       -0.235107
N        0.396516       -0.404494       -0.000314
N       -0.463044        0.457499        0.088069
10
  Step 28: 28.0 fs
C       -1.763710       -0.077776       -0.045188
H       -2.440257        0.443922        0.742296
H       -2.186055        0.067445       -1.013721
H       -1.818924       -1.197887        0.122871
C        1.804906        0.044946       -0.002369
H        2.408568       -0.466048        0.678112
H        2.372686       -0.395012       -0.937729
H        2.098098        1.172425       -0.255393
N        0.397930       -0.410993       -0.001057
N       -0.464510        0.466131        0.089445
10
  Step 29: 29.0 fs
C       -1.760833       -0.083351       -0.046975
H       -2.435576        0.457260        0.737365
H       -2.150960        0.072168       -0.984400
H       -1.840572       -1.201315        0.124683
C        1.797888        0.039842       -0.000920
H        2.391103       -0.454006        0.674942
H        2.380043       -0.398611       -0.955872
H        2.112189        1.241034       -0.260251
N        0.399731       -0.417857       -0.001787
N       -0.464355        0.475548        0.090462
10
  Step 30: 30.0 fs
C       -1.759898       -0.090042       -0.045323
H       -2.422810        0.462306        0.719626
H       -2.125224        0.085952       -0.981093
H       -1.857920       -1.196041        0.127163
C        1.792034        0.037341       -0.004003
H        2.384796       -0.449175        0.700172
H        2.369587       -0.398743       -0.963142
H        2.112482        1.282265       -0.249058
N        0.401527       -0.424479       -0.002439
N       -0.462274        0.485007        0.091101
10
  Step 31: 31.0 fs
C       -1.760605       -0.097466       -0.040209
H       -2.404353        0.459881        0.691441
H       -2.110560        0.108706       -1.007168
H       -1.870112       -1.184329        0.130437
C        1.787814        0.037385       -0.011181
H        2.386098       -0.448389        0.748057
H        2.342090       -0.394691       -0.958149
H        2.098332        1.292002       -0.222820
N        0.402982       -0.430332       -0.002959
N       -0.458110        0.493830        0.091364
10
  Step 32: 32.0 fs
C       -1.762817       -0.104931       -0.033136
H       -2.385030        0.453091        0.658022
H       -2.102844        0.136797       -1.050599
H       -1.876876       -1.170803        0.134643
C        1.785829        0.039485       -0.021141
H        2.386836       -0.445083        0.805844
H        2.300676       -0.387220       -0.942112
H        2.069951        1.269521       -0.183442
N        0.403844       -0.435009       -0.003310
N       -0.451865        0.501440        0.091269
10
  Step 33: 33.0 fs
C       -1.766194       -0.111667       -0.026201
H       -2.371837        0.447345        0.627006
H       -2.096811        0.164815       -1.094583
H       -1.878480       -1.161539        0.139933
C        1.786245        0.043187       -0.032181
H        2.380220       -0.434199        0.860641
H        2.251280       -0.379007       -0.920100
H        2.028434        1.217235       -0.133623
N        0.403962       -0.438233       -0.003464
N       -0.443696        0.507384        0.090845
10
  Step 34: 34.0 fs
C       -1.770122       -0.117108       -0.021155
H       -2.372034        0.448803        0.606268
H       -2.089124        0.187910       -1.126536
H       -1.875487       -1.161808        0.146354
C        1.788558        0.048032       -0.042405
H        2.362953       -0.413799        0.902872
H        2.202618       -0.374885       -0.901922
H        1.976299        1.143100       -0.077010
N        0.403292       -0.439876       -0.003405
N       -0.433901        0.511360        0.090130
10
  Step 35: 35.0 fs
C       -1.774113       -0.120895       -0.018902
H       -2.389048        0.460499        0.599691
H       -2.078453        0.202678       -1.139675
H       -1.868433       -1.173234        0.153633
C        1.791739        0.052961       -0.049976
H        2.334853       -0.384689        0.926828
H        2.164118       -0.380501       -0.899816
H        1.918201        1.066155       -0.017969
N        0.401892       -0.439967       -0.003128
N       -0.422884        0.513237        0.089179
10
  Step 36: 36.0 fs
C       -1.778134       -0.122758       -0.019400
H       -2.419729        0.479544        0.604791
H       -2.064786        0.207164       -1.131790
H       -1.857722       -1.192600        0.161074
C        1.794773        0.055585       -0.053930
H        2.297986       -0.349722        0.930388
H        2.141382       -0.397831       -0.920132
H        1.860075        1.020169        0.040176
N        0.399906       -0.438704       -0.002645
N       -0.411127        0.513063        0.088061
10
  Step 37: 37.0 fs
C       -1.782469       -0.122553       -0.021935
H       -2.456391        0.499051        0.615164
H       -2.049061        0.200810       -1.104548
H       -1.843797       -1.213359        0.167696
C        1.797244        0.053545       -0.054827
H        2.256359       -0.313468        0.915317
H        2.133921       -0.421795       -0.957150
H        1.804937        1.033967        0.096605
N        0.397543       -0.436463       -0.001993
N       -0.399161        0.511065        0.086855
10
  Step 38: 38.0 fs
C       -1.787353       -0.120376       -0.025444
H       -2.491056        0.512280        0.624564
H       -2.033184        0.184703       -1.063984
H       -1.827344       -1.228607        0.172587
C        1.799119        0.047736       -0.053968
H        2.216076       -0.281982        0.888283
H        2.137988       -0.443703       -0.998230
H        1.752457        1.095988        0.147855
N        0.395076       -0.433763       -0.001249
N       -0.387565        0.507630        0.085646
10
  Step 39: 39.0 fs
C       -1.792749       -0.116596       -0.028570
H       -2.517863        0.514873        0.628871
H       -2.020238        0.162009       -1.021922
H       -1.809318       -1.233255        0.175194
C        1.800039        0.041083       -0.052708
H        2.185109       -0.261997        0.861489
H        2.149622       -0.456307       -1.031557
H        1.704271        1.172281        0.186774
N        0.392860       -0.431191       -0.000519
N       -0.376955        0.503278        0.084515
10
  Step 40: 40.0 fs
C       -1.798329       -0.111764       -0.029722
H       -2.533603        0.505201        0.626239
H       -2.014217        0.137704       -0.995562
H       -1.790818       -1.225042        0.175485
C        1.799406        0.035829       -0.052452
H        2.171364       -0.259039        0.849612
H        2.165739       -0.455512       -1.049345
H        1.663517        1.238336        0.208483
N        0.391323       -0.429336        0.000073
N       -0.367964        0.498615        0.083534
10
  Step 41: 41.0 fs
C       -1.803642       -0.106344       -0.027694
H       -2.537656        0.484111        0.616871
H       -2.018250        0.116137       -0.999921
H       -1.772894       -1.204955        0.174060
C        1.796917        0.033033       -0.053921
H        2.178437       -0.274563        0.859930
H        2.184207       -0.440009       -1.048137
H        1.632806        1.281996        0.211630
N        0.390876       -0.428733        0.000412
N       -0.361169        0.494248        0.082750
10
  Step 42: 42.0 fs
C       -1.808327       -0.100430       -0.022763
H       -2.532191        0.454918        0.603153
H       -2.031937        0.097876       -1.035032
H       -1.756323       -1.177249        0.172131
C        1.792849        0.032899       -0.056463
H        2.202873       -0.304414        0.885185
H        2.203806       -0.410659       -1.028492
H        1.613851        1.297805        0.196916
N        0.391813       -0.429806        0.000404
N       -0.357012        0.490688        0.082191
10
  Step 43: 43.0 fs
C       -1.812085       -0.093878       -0.016734
H       -2.522562        0.423452        0.589895
H       -2.051504        0.080597       -1.085441
H       -1.741458       -1.148832        0.171241
C        1.787801        0.035268       -0.058573
H        2.236992       -0.341292        0.910592
H        2.224444       -0.370225       -0.994878
H        1.607713        1.283694        0.166110
N        0.394226       -0.432809       -0.000010
N       -0.355733        0.488268        0.081861
10
  Step 44: 44.0 fs
C       -1.814481       -0.086654       -0.011788
H       -2.516807        0.397290        0.583775
H       -2.072622        0.062391       -1.132938
H       -1.728248       -1.127527        0.172797
C        1.782292        0.039950       -0.058721
H        2.273143       -0.378092        0.923924
H        2.247550       -0.323263       -0.955628
H        1.614845        1.240317        0.121901
N        0.397969       -0.437783       -0.000856
N       -0.357327        0.487091        0.081739
10
  Step 45: 45.0 fs
C       -1.815075       -0.078967       -0.009515
H       -2.522212        0.382876        0.590502
H       -2.092127        0.042904       -1.164734
H       -1.716549       -1.118780        0.177555
C        1.776639        0.046646       -0.055771
H        2.305555       -0.409361        0.918722
H        2.275905       -0.275464       -0.921417
H        1.634738        1.172666        0.068282
N        0.402676       -0.444545       -0.002131
N       -0.361536        0.487017        0.081771
10
  Step 46: 46.0 fs
C       -1.813845       -0.071146       -0.010470
H       -2.539961        0.381842        0.610555
H       -2.108138        0.022882       -1.174231
H       -1.706586       -1.122860        0.185363
C        1.771168        0.054379       -0.049319
H        2.330490       -0.431313        0.893548
H        2.311726       -0.232047       -0.900925
H        1.665034        1.094871        0.011044
N        0.407831       -0.452711       -0.003813
N       -0.367897        0.487717        0.081876
10
  Step 47: 47.0 fs
C       -1.811332       -0.063541       -0.014210
H       -2.563737        0.390572        0.638173
H       -2.119752        0.003613       -1.159674
H       -1.699094       -1.134963        0.195314
C        1.766510        0.060769       -0.039927
H        2.346031       -0.441638        0.850689
H        2.353577       -0.196185       -0.896101
H        1.701007        1.036454       -0.042987
N        0.412878       -0.461740       -0.005865
N       -0.375819        0.488749        0.081958
10
  Step 48: 48.0 fs
C       -1.808280       -0.056540       -0.019696
H       -2.584280        0.403551        0.665127
H       -2.127020       -0.013375       -1.123658
H       -1.695035       -1.148057        0.206198
C        1.763431        0.062780       -0.028765
H        2.352363       -0.439883        0.795761
H        2.395795       -0.169202       -0.902472
H        1.737895        1.033682       -0.089610
N        0.417305       -0.470982       -0.008233
N       -0.384664        0.489631        0.081913
10
  Step 49: 49.0 fs
C       -1.805242       -0.050545       -0.025608
H       -2.594101        0.416317        0.684701
H       -2.131333       -0.026505       -1.073811
H       -1.695183       -1.155929        0.216957
C        1.762270        0.060238       -0.017258
H        2.352839       -0.428690        0.738387
H        2.431253       -0.151490       -0.913641
H        1.774175        1.090181       -0.127766
N        0.420688       -0.479773       -0.010847
N       -0.393827        0.489910        0.081640
10
  Step 50: 50.0 fs
C       -1.802400       -0.045888       -0.030384
H       -2.588996        0.426282        0.692999
H       -2.136021       -0.034392       -1.023840
H       -1.699895       -1.154690        0.226887
C        1.762862        0.056337       -0.007254
H        2.354979       -0.414630        0.692383
H        2.453943       -0.142754       -0.924481
H        1.808896        1.172398       -0.154574
N        0.422705       -0.487516       -0.013623
N       -0.402764        0.489208        0.081047
10
  Step 51: 51.0 fs
C       -1.799590       -0.042772       -0.032389
H       -2.568005        0.432695        0.689025
H       -2.146161       -0.036138       -0.991599
H       -1.709069       -1.143271        0.235688
C        1.764740        0.054170       -0.000565
H        2.368511       -0.406056        0.672122
H        2.459887       -0.142059       -0.931660
H        1.839996        1.249054       -0.166703
N        0.423168       -0.493709       -0.016469
N       -0.411006        0.487247        0.080059
10
  Step 52: 52.0 fs
C       -1.796556       -0.041236       -0.030697
H       -2.533182        0.436583        0.674583
H       -2.165613       -0.031483       -0.989700
H       -1.722200       -1.123488        0.243474
C        1.767659        0.055209        0.001989
H        2.397652       -0.406789        0.683555
H        2.447394       -0.148217       -0.933530
H        1.865546        1.303401       -0.162850
N        0.422019       -0.497981       -0.019291
N       -0.418159        0.483858        0.078619
10
  Step 53: 53.0 fs
C       -1.793282       -0.041191       -0.025999
H       -2.489758        0.440994        0.654460
H       -2.192763       -0.020763       -1.014884
H       -1.738523       -1.099913        0.250773
C        1.772043        0.059469        0.000959
H        2.435649       -0.412518        0.719382
H        2.417048       -0.160181       -0.929952
H        1.884199        1.328193       -0.143496
N        0.419314       -0.500093       -0.022002
N       -0.423908        0.478984        0.076692
10
  Step 54: 54.0 fs
C       -1.789923       -0.042464       -0.020252
H       -2.445898        0.451054        0.636109
H       -2.221266       -0.004954       -1.051836
H       -1.757226       -1.079221        0.258461
C        1.778494        0.066337       -0.002345
H        2.470709       -0.415678        0.765948
H        2.371901       -0.177343       -0.922599
H        1.895134        1.321099       -0.110203
N        0.415205       -0.499951       -0.024521
N       -0.428026        0.472670        0.074266
10
  Step 55: 55.0 fs
C       -1.786567       -0.044843       -0.015501
H       -2.410603        0.472789        0.627651
H       -2.244542        0.014436       -1.084949
H       -1.777722       -1.068454        0.267531
C        1.787154        0.075156       -0.006475
H        2.493540       -0.410790        0.811067
H        2.317589       -0.199747       -0.915571
H        1.898051        1.283196       -0.065343
N        0.409946       -0.497600       -0.026772
N       -0.430398        0.465054        0.071342
10
  Step 56: 56.0 fs
C       -1.783409       -0.048061       -0.012970
H       -2.388773        0.509343        0.633153
H       -2.258248        0.035722       -1.103936
H       -1.799826       -1.071719        0.278510
C        1.797615        0.085227       -0.010071
H        2.499306       -0.395641        0.846297
H        2.261404       -0.227991       -0.914953
H        1.893333        1.220081       -0.012108
N        0.403887       -0.493234       -0.028685
N       -0.431038        0.456372        0.067936
10
  Step 57: 57.0 fs
C       -1.781022       -0.051739       -0.012746
H       -2.378120        0.557432        0.649431
H       -2.260361        0.057310       -1.103878
H       -1.823555       -1.087728        0.290914