10
  Step 0: 0.0 fs
C       -1.803705       -0.067741        0.000066
H       -2.311470        0.330640        0.889294
H       -2.311396        0.329982       -0.889448
H       -1.816433       -1.165815        0.000641
C        1.803675        0.067710        0.000033
H        2.310873       -0.329678        0.890051
H        2.312175       -0.330882       -0.888632
H        1.816231        1.165789       -0.000444
N        0.410954       -0.460069       -0.000161
N       -0.410928        0.460089       -0.000132
10
  Step 1: 1.0 fs
C       -1.806345       -0.062166        0.012221
H       -2.342008        0.318882        0.895471
H       -2.333086        0.323813       -0.987761
H       -1.765053       -1.201593       -0.042619
C        1.798328        0.073752       -0.004853
H        2.340745       -0.368421        0.943914
H        2.310378       -0.362195       -0.868402
H        1.767080        1.117960       -0.025156
N        0.409216       -0.453398       -0.002945
N       -0.400767        0.455812        0.002613
10
  Step 2: 2.0 fs
C       -1.809382       -0.057213        0.022499
H       -2.371615        0.306617        0.899645
H       -2.345440        0.312081       -1.065824
H       -1.716345       -1.225758       -0.082993
C        1.793619        0.077496       -0.008460
H        2.361136       -0.397856        0.982624
H        2.309316       -0.392821       -0.849688
H        1.720716        1.089543       -0.049187
N        0.407908       -0.447554       -0.005697
N       -0.391362        0.452348        0.005469
10
  Step 3: 3.0 fs
C       -1.812724       -0.053493        0.029858
H       -2.399247        0.293497        0.900330
H       -2.345132        0.293877       -1.113868
H       -1.673280       -1.231424       -0.117509
C        1.789901        0.077408       -0.010227
H        2.367540       -0.412743        0.999589
H        2.309341       -0.421683       -0.833327
H        1.678930        1.094506       -0.072571
N        0.407427       -0.443323       -0.008386
N       -0.383419        0.450457        0.008543
10
  Step 4: 4.0 fs
C       -1.816117       -0.051385        0.033734
H       -2.423901        0.279362        0.896669
H       -2.331638        0.270170       -1.127877
H       -1.638497       -1.216415       -0.143624
C        1.787296        0.073688       -0.010038
H        2.358366       -0.410653        0.993134
H        2.310461       -0.447476       -0.819816
H        1.643941        1.128468       -0.095211
N        0.408035       -0.441303       -0.010984
N       -0.377489        0.450723        0.011931
10
  Step 5: 5.0 fs
C       -1.819295       -0.050998        0.033852
H       -2.444757        0.264230        0.888472
H       -2.305864        0.242764       -1.107162
H       -1.613914       -1.182617       -0.159467
C        1.785688        0.067778       -0.008117
H        2.334004       -0.391186        0.964808
H        2.312424       -0.468890       -0.809530
H        1.619076        1.173605       -0.116146
N        0.409792       -0.441778       -0.013468
N       -0.373865        0.453450        0.015712
10
  Step 6: 6.0 fs
C       -1.822008       -0.052152        0.030241
H       -2.461279        0.248274        0.876226
H       -2.269995        0.214211       -1.054276
H       -1.600320       -1.136039       -0.164020
C        1.784803        0.061211       -0.005022
H        2.297160       -0.356127        0.919985
H        2.314811       -0.484756       -0.802756
H        1.607176        1.212560       -0.134067
N        0.412518       -0.444657       -0.015816
N       -0.372543        0.458612        0.019934
10
  Step 7: 7.0 fs
C       -1.823979       -0.054333        0.023461
H       -2.473262        0.231828        0.861060
H       -2.228419        0.188374       -0.977402
H       -1.596799       -1.087753       -0.157405
C        1.784163        0.055236       -0.001819
H        2.254285       -0.310399        0.870426
H        2.317176       -0.494209       -0.799560
H        1.609517        1.234203       -0.147958
N        0.415818       -0.449522       -0.018009
N       -0.373242        0.465865        0.024611
10
  Step 8: 8.0 fs
C       -1.824722       -0.056808        0.015118
H       -2.480869        0.215467        0.844679
H       -2.189868        0.171651       -0.896202
H       -1.600411       -1.053649       -0.141009
C        1.782943        0.050973       -0.000345
H        2.217102       -0.263009        0.837377
H        2.319214       -0.496849       -0.799546
H        1.625875        1.233270       -0.157365
N        0.419141       -0.455736       -0.020024
N       -0.375499        0.474625        0.029723
10
  Step 9: 9.0 fs
C       -1.823280       -0.059123        0.008242
H       -2.484684        0.200126        0.829226
H       -2.169071        0.173910       -0.846730
H       -1.607346       -1.049398       -0.116996
C        1.780236        0.049275       -0.002717
H        2.199000       -0.223778        0.845639
H        2.320952       -0.492919       -0.801719
H        1.654801        1.209100       -0.162540
N        0.421888       -0.462564       -0.021842
N       -0.378788        0.484161        0.035223
10
  Step 10: 10.0 fs
C       -1.818668       -0.061573        0.005492
H       -2.485756        0.187189        0.817148
H       -2.178574        0.203304       -0.860902
H       -1.615811       -1.079693       -0.087314
C        1.776077        0.050006       -0.009285
H        2.202656       -0.194710        0.899595
H        2.322897       -0.483504       -0.804765
H        1.693689        1.165793       -0.164628
N        0.423505       -0.469289       -0.023446
N       -0.382626        0.493702        0.041052
10
  Step 11: 11.0 fs
C       -1.811233       -0.064567        0.005635
H       -2.485381        0.178325        0.810748
H       -2.211877        0.253921       -0.924227
H       -1.627117       -1.133536       -0.053817
C        1.771615        0.051946       -0.017973
H        2.217588       -0.170463        0.975919
H        2.326032       -0.470605       -0.807558
H        1.738941        1.113713       -0.165748
N        0.423576       -0.475264       -0.024826
N       -0.386618        0.502524        0.047150
10
  Step 12: 12.0 fs
C       -1.802220       -0.068262        0.005628
H       -2.484248        0.174940        0.810859
H       -2.251969        0.310422       -0.998251
H       -1.643245       -1.192817       -0.019019
C        1.767979        0.053404       -0.026351
H        2.232640       -0.146906        1.048225
H        2.331551       -0.456949       -0.809386
H        1.786707        1.070269       -0.168717
N        0.421879       -0.479930       -0.025977
N       -0.390482        0.509998        0.053444
10
  Step 13: 13.0 fs
C       -1.792702       -0.072789        0.003779
H       -2.481685        0.177679        0.815992
H       -2.286770        0.360772       -1.057477
H       -1.664782       -1.242095        0.014139
C        1.765740        0.052795       -0.032823
H        2.241553       -0.123095        1.100373
H        2.340450       -0.445577       -0.809923
H        1.834174        1.054593       -0.176170
N        0.418390       -0.482825       -0.026909
N       -0.394059        0.515615        0.059836
10
  Step 14: 14.0 fs
C       -1.783495       -0.078179       -0.000247
H       -2.475898        0.186353        0.822983
H       -2.310283        0.398322       -1.090796
H       -1.690841       -1.271811        0.042905
C        1.765082        0.049671       -0.036644
H        2.241712       -0.099732        1.124812
H        2.353157       -0.439229       -0.808981
H        1.879543        1.073425       -0.188889
N        0.413236       -0.483607       -0.027646
N       -0.397271        0.519011        0.066210
10
  Step 15: 15.0 fs
C       -1.775274       -0.084272       -0.006167
H       -2.464905        0.200229        0.828391
H       -2.319795        0.419682       -1.094477
H       -1.719711       -1.277715        0.065004
C        1.766158        0.045142       -0.037715
H        2.232443       -0.078078        1.119104
H        2.369206       -0.439618       -0.806110
H        1.920183        1.114731       -0.205165
N        0.406648       -0.482082       -0.028233
N       -0.400092        0.519974        0.072450
10
  Step 16: 16.0 fs
C       -1.768596       -0.090709       -0.013531
H       -2.447396        0.218361        0.829673
H       -2.314233        0.423192       -1.068317
H       -1.749391       -1.259882        0.078748
C        1.769169        0.040810       -0.036333
H        2.214291       -0.059472        1.084270
H        2.387136       -0.447028       -0.800351
H        1.952637        1.159750       -0.222477
N        0.398935       -0.478210       -0.028727
N       -0.402527        0.518442        0.078444
10
  Step 17: 17.0 fs
C       -1.763856       -0.096907       -0.021867
H       -2.423182        0.239829        0.825799
H       -2.293775        0.408503       -1.014694
H       -1.777894       -1.222691        0.083196
C        1.774167        0.037841       -0.033115
H        2.189330       -0.045253        1.025647
H        2.404784       -0.460537       -0.790507
H        1.974191        1.194164       -0.238996
N        0.390492       -0.472113       -0.029198
N       -0.404617        0.514507        0.084101
10
  Step 18: 18.0 fs
C       -1.761183       -0.102049       -0.030618
H       -2.393279        0.263837        0.817433
H       -2.260582        0.377346       -0.939891
H       -1.803541       -1.175849        0.078483
C        1.780851        0.036862       -0.029199
H        2.162315       -0.036851        0.955958
H        2.419868       -0.478629       -0.775716
H        1.983584        1.210018       -0.253788
N        0.381794       -0.464082       -0.029729
N       -0.406451        0.508421        0.089348
10
  Step 19: 19.0 fs
C       -1.760198       -0.105248       -0.038799
H       -2.359746        0.289710        0.806746
H       -2.221159        0.336024       -0.858277
H       -1.825377       -1.134753        0.066171
C        1.788410        0.038159       -0.026569
H        2.142086       -0.036003        0.899248
H        2.430576       -0.499795       -0.755930
H        1.980850        1.204144       -0.266495
N        0.373412       -0.454592       -0.030410
N       -0.408188        0.500600        0.094139
10
  Step 20: 20.0 fs
C       -1.759695       -0.106192       -0.044390
H       -2.325312        0.316805        0.796779
H       -2.190055        0.299229       -0.798464
H       -1.843387       -1.116631        0.048962
C        1.795724        0.041791       -0.027588
H        2.139223       -0.044509        0.885252
H        2.435976       -0.522992       -0.732142
H        1.967090        1.177050       -0.277147
N        0.365995       -0.444296       -0.031343
N       -0.410082        0.491625        0.098450
10
  Step 21: 21.0 fs
C       -1.757970       -0.105732       -0.044664
H       -2.292988        0.344397        0.790493
H       -2.186936        0.286835       -0.797026
H       -1.857911       -1.130240        0.029285
C        1.802213        0.047416       -0.032743
H        2.156085       -0.062338        0.922688
H        2.436185       -0.547833       -0.706304
H        1.944410        1.133286       -0.286342
N        0.360234       -0.433991       -0.032641
N       -0.412463        0.482211        0.102274
10
  Step 22: 22.0 fs
C       -1.754870       -0.104614       -0.039431
H       -2.265773        0.371627        0.789940
H       -2.213861        0.301654       -0.858256
H       -1.868653       -1.168779        0.008326
C        1.808146        0.053962       -0.039728
H        2.183348       -0.085770        0.988353
H        2.432178       -0.574461       -0.680831
H        1.916037        1.083281       -0.295805
N        0.356823       -0.424543       -0.034417
N       -0.415672        0.473144        0.105628
10
  Step 23: 23.0 fs
C       -1.752140       -0.102749       -0.031656
H       -2.246223        0.397404        0.795594
H       -2.251492        0.326779       -0.947008
H       -1.874696       -1.215872       -0.013222
C        1.813834        0.059649       -0.045741
H        2.210357       -0.109340        1.053981
H        2.425203       -0.602932       -0.657765
H        1.886067        1.044259       -0.308825
N        0.356365       -0.416759       -0.036769
N       -0.419976        0.465168        0.108556
10
  Step 24: 24.0 fs
C       -1.751317       -0.100250       -0.023935
H       -2.235901        0.420129        0.805933
H       -2.283327        0.348320       -1.031201
H       -1.875301       -1.255616       -0.034336
C        1.819310        0.062640       -0.048922
H        2.230725       -0.128387        1.102067
H        2.416258       -0.632599       -0.638347
H        1.858223        1.034337       -0.329359
N        0.359247       -0.411243       -0.039748
N       -0.425483        0.458840        0.111098
10
  Step 25: 25.0 fs
C       -1.753144       -0.097435       -0.017517
H       -2.235192        0.437736        0.818021
H       -2.301781        0.360296       -1.094033
H       -1.870392       -1.277451       -0.053679
C        1.824529        0.062307       -0.048524
H        2.241535       -0.139741        1.124433
H        2.405956       -0.661985       -0.623125
H        1.834685        1.057856       -0.358334
N        0.365507       -0.408279       -0.043343
N       -0.432068        0.454431        0.113277
10
  Step 26: 26.0 fs
C       -1.757856       -0.094531       -0.012868
H       -2.243557        0.448140        0.828559
H       -2.304448        0.361019       -1.128162
H       -1.860564       -1.276495       -0.069911
C        1.829428        0.059644       -0.044746
H        2.241851       -0.141550        1.118462
H        2.394663       -0.689096       -0.612280
H        1.816782        1.100474       -0.391490
N        0.374794       -0.407797       -0.047475
N       -0.439350        0.451885        0.115090
10
  Step 27: 27.0 fs
C       -1.765398       -0.091588       -0.010148
H       -2.259925        0.449749        0.834789
H       -2.291264        0.350594       -1.130785
H       -1.846941       -1.252580       -0.081885
C        1.833888        0.056132       -0.038287
H        2.232046       -0.133009        1.085319
H        2.382666       -0.711792       -0.605838
H        1.805869        1.142599       -0.422556
N        0.386419       -0.409414       -0.052005
N       -0.446732        0.450890        0.116514
10
  Step 28: 28.0 fs
C       -1.775500       -0.088441       -0.009396
H       -2.283049        0.441824        0.835071
H       -2.263513        0.330109       -1.101823
H       -1.831046       -1.210186       -0.088769
C        1.837730        0.052871       -0.030115
H        2.214053       -0.114364        1.030606
H        2.370309       -0.728132       -0.603719
H        1.803017        1.170104       -0.446572
N        0.399457       -0.412559       -0.056751
N       -0.453493        0.450980        0.117517
10
  Step 29: 29.0 fs
C       -1.787687       -0.084652       -0.010504
H       -2.311749        0.424658        0.829175
H       -2.223967        0.301813       -1.044383
H       -1.814612       -1.159352       -0.090163
C        1.840643        0.050532       -0.021640
H        2.192416       -0.087279        0.967187
H        2.358131       -0.736667       -0.605675
H        1.808673        1.175685       -0.460668
N        0.412882       -0.416605       -0.061522
N       -0.458906        0.451660        0.118085
10
  Step 30: 30.0 fs
C       -1.801204       -0.079605       -0.012951
H       -2.345084        0.399590        0.818326
H       -2.178085        0.270256       -0.967861
H       -1.799159       -1.115602       -0.086176
C        1.842067        0.049552       -0.015033
H        2.175478       -0.055116        0.918455
H        2.346956       -0.736687       -0.611151
H        1.822624        1.157191       -0.463800
N        0.425688       -0.420984       -0.066134
N       -0.462345        0.452496        0.118245
10
  Step 31: 31.0 fs
C       -1.814881       -0.073038       -0.015218
H       -2.382447        0.368891        0.804973
H       -2.136207        0.244518       -0.894645
H       -1.785457       -1.095426       -0.077244
C        1.841357        0.050101       -0.012686
H        2.173166       -0.021573        0.911857
H        2.337942       -0.728412       -0.619164
H        1.844003        1.116881       -0.456766
N        0.436995       -0.425245       -0.070428
N       -0.463357        0.453160        0.118065
10
  Step 32: 32.0 fs
C       -1.827123       -0.065945       -0.014471
H       -2.423532        0.335471        0.792179
H       -2.113533        0.238791       -0.863396
H       -1.773718       -1.105793       -0.063844
C        1.838522        0.051801       -0.015022
H        2.187919        0.011990        0.953497
H        2.332595       -0.713220       -0.628483
H        1.871349        1.062249       -0.442715
N        0.446091       -0.429070       -0.074274
N       -0.461699        0.453436        0.117644
10
  Step 33: 33.0 fs
C       -1.836826       -0.060047       -0.008903
H       -2.468053        0.302410        0.782770
H       -2.118598        0.261354       -0.899782
H       -1.764561       -1.138749       -0.046815
C        1.834437        0.053654       -0.019712
H        2.211567        0.045409        1.019973
H        2.332632       -0.693685       -0.637949
H        1.903003        1.007906       -0.427840
N        0.452474       -0.432256       -0.077582
N       -0.457339        0.453206        0.117097
10
  Step 34: 34.0 fs
C       -1.844334       -0.056015       -0.000749
H       -2.515129        0.272321        0.778339
H       -2.142488        0.301646       -0.979053
H       -1.759165       -1.179008       -0.027724
C        1.830005        0.054290       -0.023889
H        2.234393        0.077356        1.084072
H        2.339581       -0.673130       -0.646549
H        1.937939        0.974384       -0.420563
N        0.455881       -0.434694       -0.080301
N       -0.450452        0.452440        0.116539
10
  Step 35: 35.0 fs
C       -1.850436       -0.053814        0.006819
H       -2.562362        0.246798        0.778150
H       -2.172333        0.343844       -1.061866
H       -1.758580       -1.212890       -0.008593
C        1.825763        0.052790       -0.025755
H        2.250286        0.105836        1.129103
H        2.354228       -0.654776       -0.653298
H        1.975762        0.976915       -0.426787
N        0.456288       -0.436359       -0.082424
N       -0.441410        0.451190        0.116066
10
  Step 36: 36.0 fs
C       -1.855682       -0.053395        0.012185
H       -2.605728        0.226491        0.779398
H       -2.200360        0.378173       -1.124802
H       -1.763282       -1.231597        0.008623
C        1.822177        0.049750       -0.024956
H        2.256214        0.129038        1.147396
H        2.376149       -0.640763       -0.657000
H        2.014337        1.011212       -0.444116
N        0.453873       -0.437318       -0.083993
N       -0.430730        0.449585        0.115749
10
  Step 37: 37.0 fs
C       -1.860447       -0.054677        0.014896
H       -2.640743        0.211632        0.778860
H       -2.222708        0.400021       -1.157769
H       -1.773141       -1.231235        0.022301
C        1.819855        0.046757       -0.022074
H        2.250937        0.145629        1.136686
H        2.403524       -0.631522       -0.656119
H        2.048943        1.058943       -0.464556
N        0.448979       -0.437722       -0.085085
N       -0.419006        0.447828        0.115654
10
  Step 38: 38.0 fs
C       -1.865006       -0.057431        0.014963
H       -2.663745        0.202438        0.774266
H       -2.237384        0.407355       -1.157249
H       -1.787513       -1.212053        0.031181
C        1.819351        0.045136       -0.017928
H        2.234491        0.154850        1.098559
H        2.433404       -0.625977       -0.649012
H        2.074807        1.102834       -0.481064
N        0.442102       -0.437807       -0.085811
N       -0.406873        0.446193        0.115845
10
  Step 39: 39.0 fs
C       -1.869541       -0.061186        0.012526
H       -2.672704        0.199268        0.765010
H       -2.243344        0.399510       -1.123168
H       -1.805300       -1.178480        0.034399
C        1.820930        0.045542       -0.013427
H        2.208582        0.156723        1.039403
H        2.462473       -0.622490       -0.634527
H        2.088810        1.132240       -0.489778
N        0.433865       -0.437884       -0.086306
N       -0.394984        0.445013        0.116396
10
  Step 40: 40.0 fs
C       -1.874107       -0.065156        0.007797
H       -2.667537        0.202594        0.752331
H       -2.240368        0.377092       -1.058528
H       -1.824987       -1.139774        0.031613
C        1.824410        0.048101       -0.009834
H        2.177675        0.152447        0.973419
H        2.487872       -0.619738       -0.612542
H        2.089544        1.142055       -0.489356
N        0.424978       -0.438320       -0.086719
N       -0.383993        0.444650        0.117379
10
  Step 41: 41.0 fs
C       -1.878534       -0.068357        0.001248
H       -2.650043        0.212897        0.739237
H       -2.229821        0.343043       -0.971676
H       -1.844842       -1.109520        0.023190
C        1.829081        0.052571       -0.009075
H        2.149901        0.144702        0.925569
H        2.507827       -0.617265       -0.584173
H        2.076934        1.131007       -0.480093
N        0.416167       -0.439487       -0.087201
N       -0.374510        0.445434        0.118856
10
  Step 42: 42.0 fs
C       -1.882220       -0.070198       -0.005866
H       -2.623476        0.230497        0.730085
H       -2.216837        0.305322       -0.882073
H       -1.863380       -1.101107        0.010245
C        1.833987        0.058495       -0.013077
H        2.133809        0.136528        0.923401
H        2.521990       -0.615672       -0.551662
H        2.052073        1.101293       -0.463669
N        0.408083       -0.441698       -0.087897
N       -0.367055        0.447600        0.120853
10
  Step 43: 43.0 fs
C       -1.883899       -0.071424       -0.010876
H       -2.591628        0.255320        0.729508
H       -2.213293        0.279668       -0.826216
H       -1.879839       -1.119154       -0.005695
C        1.838663        0.065317       -0.021551
H        2.129729        0.128662        0.970768
H        2.531464       -0.616492       -0.518016
H        2.017335        1.059758       -0.443596
N        0.401214       -0.445131       -0.088921
N       -0.362005        0.451211        0.123327
10
  Step 44: 44.0 fs
C       -1.882226       -0.073733       -0.011068
H       -2.557526        0.286563        0.740608
H       -2.232314        0.281686       -0.839346
H       -1.894063       -1.155943       -0.023080
C        1.843138        0.072075       -0.031572
H        2.129939        0.120169        1.042846
H        2.538315       -0.621549       -0.486332
H        1.976586        1.020220       -0.426026
N        0.395850       -0.449773       -0.090343
N       -0.359547        0.456114        0.126165
10
  Step 45: 45.0 fs
C       -1.877497       -0.077508       -0.007465
H       -2.522514        0.322400        0.763308
H       -2.269484        0.306518       -0.909021
H       -1.906024       -1.197856       -0.040376
C        1.847316        0.077158       -0.039923
H        2.127628        0.111077        1.112392
H        2.544516       -0.631784       -0.458986
H        1.934403        1.002538       -0.419101
N        0.392095       -0.455401       -0.092155
N       -0.359652        0.461934        0.129200
10
  Step 46: 46.0 fs
C       -1.871191       -0.081931       -0.003172
H       -2.486156        0.359790        0.793762
H       -2.308750        0.337324       -0.994309
H       -1.915574       -1.232418       -0.056070
C        1.851014        0.079242       -0.044627
H        2.119757        0.102480        1.162649
H        2.551035       -0.646425       -0.437307
H        1.893835        1.020574       -0.428084
N        0.389882       -0.461617       -0.094284
N       -0.362099        0.468108        0.132226
10
  Step 47: 47.0 fs
C       -1.864454       -0.086256       -0.000034
H       -2.447298        0.394771        0.825775
H       -2.339151        0.362849       -1.066774
H       -1.922462       -1.251188       -0.068835
C        1.854148        0.078639       -0.045238
H        2.105686        0.095667        1.185622
H        2.557631       -0.663115       -0.421776
H        1.855928        1.067123       -0.449730
N        0.389012       -0.467920       -0.096610
N       -0.366535        0.473970        0.135005
10
  Step 48: 48.0 fs
C       -1.857876       -0.089930        0.001392
H       -2.405424        0.423423        0.853250
H       -2.356021        0.378332       -1.113210
H       -1.926452       -1.250274       -0.077629
C        1.856611        0.076794       -0.042272
H        2.085976        0.091721        1.178722
H        2.563234       -0.678723       -0.412378
H        1.822003        1.121009       -0.475317
N        0.389210       -0.473781       -0.099003
N       -0.372536        0.478847        0.137293
10
  Step 49: 49.0 fs
C       -1.851706       -0.092426        0.001092
H       -2.361261        0.442719        0.871796
H       -2.357844        0.382230       -1.128292
H       -1.927406       -1.230105       -0.081774
C        1.858227        0.074959       -0.036497
H        2.061902        0.091505        1.143265
H        2.566476       -0.690183       -0.408849
H        1.794113        1.163654       -0.497136
N        0.390175       -0.478707       -0.101344
N       -0.379645        0.482134        0.138860
10
  Step 50: 50.0 fs
C       -1.845981       -0.093133       -0.000808
H       -2.316817        0.451013        0.879381
H       -2.344567        0.374537       -1.110533
H       -1.925386       -1.195542       -0.080994
C        1.858771        0.073796       -0.028834
H        2.035548        0.095725        1.085451
H        2.566179       -0.695120       -0.410822
H        1.774138        1.184373       -0.510601
N        0.391611       -0.482288       -0.103538
N       -0.387397        0.483347        0.139507
10
  Step 51: 51.0 fs
C       -1.840584       -0.091328       -0.004174
H       -2.275146        0.448352        0.876625
H       -2.317140        0.356320       -1.061065
H       -1.920732       -1.156160       -0.075409
C        1.857958        0.073544       -0.020661
H        2.010171        0.104994        1.019481
H        2.561702       -0.692203       -0.417829
H        1.763306        1.178827       -0.513706
N        0.393242       -0.484243       -0.105523
N       -0.395336        0.482160        0.139085
10
  Step 52: 52.0 fs
C       -1.835220       -0.086337       -0.008771
H       -2.239989        0.436550        0.866822
H       -2.278174        0.330329       -0.984998
H       -1.914012       -1.125014       -0.065386
C        1.855408        0.074170       -0.014126
H        1.990364        0.119964        0.970419
H        2.553128       -0.681304       -0.429231
H        1.762080        1.147306       -0.506432
N        0.394829       -0.484430       -0.107266
N       -0.403023        0.478418        0.137505
10
  Step 53: 53.0 fs
C       -1.829300       -0.078117       -0.013900
H       -2.215297        0.418982        0.855631
H       -2.233981        0.302826       -0.895859
H       -1.905705       -1.113475       -0.051199
C        1.850762        0.075370       -0.011430
H        1.980636        0.141302        0.965739
H        2.541337       -0.663593       -0.444159
H        1.770042        1.094715       -0.490912
N        0.396186       -0.482847       -0.108753
N       -0.410052        0.472150        0.134741
10
  Step 54: 54.0 fs
C       -1.821701       -0.068063       -0.017660
H       -2.204544        0.399805        0.849885
H       -2.198173        0.286711       -0.823183
H       -1.895853       -1.123852       -0.033078
C        1.843973        0.076519       -0.012541
H        1.982034        0.168384        1.009176
H        2.528036       -0.641614       -0.461649
H        1.785696        1.032489       -0.472388
N        0.397201       -0.479632       -0.109991
N       -0.416090        0.463568        0.130831
10
  Step 55: 55.0 fs
C       -1.810978       -0.058794       -0.017069
H       -2.209582        0.382350        0.854718
H       -2.189821        0.299271       -0.807429
H       -1.884224       -1.148061       -0.011979
C        1.835345        0.076579       -0.014719
H        1.991655        0.198053        1.076030
H        2.515535       -0.619063       -0.480766
H        1.806589        0.980577       -0.459993
N        0.397855       -0.475053       -0.111008
N       -0.420912        0.453067        0.125879
10
  Step 56: 56.0 fs
C       -1.797166       -0.051838       -0.011602
H       -2.229700        0.367943        0.870852
H       -2.212637        0.342491       -0.854854
H       -1.870775       -1.174178        0.010082
C        1.825241        0.074316       -0.014947
H        2.005730        0.226315        1.139201
H        2.506032       -0.599935       -0.500468
H        1.830422        0.962139       -0.464032
N        0.398249       -0.469492       -0.111852
N       -0.424406        0.441205        0.120061
10
  Step 57: 57.0 fs
C       -1.782308       -0.046693       -0.003976
H       -2.261293        0.355893        0.893812
H       -2.249042        0.398149       -0.927906
H       -1.855772       -1.192622        0.030627