10
  Step 0: 0.0 fs
C       -1.803710       -0.067737        0.000061
H       -2.311510        0.330687        0.889251
H       -2.311361        0.329950       -0.889487
H       -1.816435       -1.165817        0.000676
C        1.803675        0.067717        0.000023
H        2.310893       -0.329703        0.890033
H        2.312189       -0.330867       -0.888649
H        1.816252        1.165785       -0.000408
N        0.410957       -0.460075       -0.000157
N       -0.410930        0.460086       -0.000120
10
  Step 1: 1.0 fs
C       -1.805864       -0.072698        0.008382
H       -2.318981        0.337851        0.848668
H       -2.307458        0.367639       -0.933863
H       -1.864061       -1.146743       -0.000566
C        1.797839        0.081151       -0.001881
H        2.341938       -0.425629        0.955867
H        2.324595       -0.360522       -0.890922
H        1.774422        1.179889       -0.051706
N        0.410507       -0.455998       -0.002550
N       -0.400066        0.452169        0.002096
10
  Step 2: 2.0 fs
C       -1.808065       -0.076679        0.014884
H       -2.330812        0.349429        0.817253
H       -2.297623        0.398987       -0.966645
H       -1.910374       -1.135106       -0.002096
C        1.793063        0.093132       -0.002935
H        2.362052       -0.506534        1.002686
H        2.333621       -0.386518       -0.888039
H        1.735721        1.192697       -0.099474
N        0.410646       -0.452607       -0.004935
N       -0.390060        0.444768        0.004402
10
  Step 3: 3.0 fs
C       -1.810178       -0.079083        0.018480
H       -2.349902        0.368738        0.801028
H       -2.279404        0.420117       -0.981823
H       -1.954462       -1.135432       -0.004129
C        1.789742        0.102848       -0.003138
H        2.367542       -0.564232        1.024227
H        2.337084       -0.405924       -0.876828
H        1.702669        1.202914       -0.141057
N        0.411951       -0.450568       -0.007291
N       -0.381738        0.438391        0.006892
10
  Step 4: 4.0 fs
C       -1.812268       -0.079681        0.018966
H       -2.375088        0.395513        0.799452
H       -2.252640        0.429202       -0.977574
H       -1.995281       -1.146706       -0.006549
C        1.787947        0.109909       -0.002664
H        2.357744       -0.594438        1.019571
H        2.334313       -0.417043       -0.856741
H        1.677231        1.209273       -0.174468
N        0.414869       -0.450407       -0.009597
N       -0.375768        0.433437        0.009651
10
  Step 5: 5.0 fs
C       -1.814668       -0.078527        0.016863
H       -2.401414        0.425802        0.806518
H       -2.218854        0.426249       -0.955517
H       -2.031260       -1.163092       -0.008859
C        1.787567        0.114195       -0.001585
H        2.333250       -0.594825        0.989995
H        2.326229       -0.419706       -0.830007
H        1.660874        1.210805       -0.198209
N        0.419598       -0.452396       -0.011837
N       -0.372539        0.430085        0.012751
10
  Step 6: 6.0 fs
C       -1.817718       -0.075901        0.013114
H       -2.422988        0.454334        0.814978
H       -2.181259        0.413363       -0.921094
H       -2.060541       -1.177283       -0.010389
C        1.788347        0.115786        0.000176
H        2.295649       -0.564510        0.938480
H        2.315314       -0.415421       -0.801544
H        1.654523        1.207168       -0.211261
N        0.426020       -0.456495       -0.014011
N       -0.372113        0.428238        0.016252
10
  Step 7: 7.0 fs
C       -1.821470       -0.072315        0.008965
H       -2.435412        0.476762        0.819330
H       -2.145070        0.395546       -0.884924
H       -2.081540       -1.183427       -0.010529
C        1.789852        0.115007        0.002706
H        2.248205       -0.504878        0.871009
H        2.305343       -0.407224       -0.778517
H        1.658475        1.198911       -0.213191
N        0.433706       -0.462372       -0.016131
N       -0.374225        0.427532        0.020188
10
  Step 8: 8.0 fs
C       -1.825626       -0.068480        0.005930
H       -2.436504        0.490530        0.816534
H       -2.117059        0.380726       -0.862836
H       -2.093334       -1.178367       -0.008876
C        1.791358        0.112611        0.005607
H        2.198135       -0.422767        0.800849
H        2.300465       -0.398803       -0.768597
H        1.672313        1.187596       -0.204227
N        0.441987       -0.469489       -0.018215
N       -0.378364        0.427426        0.024570
10
  Step 9: 9.0 fs
C       -1.829736       -0.064997        0.005264
H       -2.426314        0.495051        0.805920
H       -2.102875        0.376381       -0.869518
H       -2.095824       -1.162109       -0.005243
C        1.791634        0.110103        0.006967
H        2.160755       -0.336173        0.756934
H        2.303335       -0.392581       -0.776225
H        1.694804        1.175813       -0.185484
N        0.450086       -0.477229       -0.020278
N       -0.383888        0.427316        0.029381
10
  Step 10: 10.0 fs
C       -1.833513       -0.061833        0.006948
H       -2.407040        0.491811        0.789202
H       -2.103164        0.383308       -0.906376
H       -2.089819       -1.137920        0.000371
C        1.789188        0.109267        0.003317
H        2.157513       -0.270279        0.781209
H        2.313727       -0.388331       -0.799376
H        1.723792        1.167349       -0.159241
N        0.457267       -0.484996       -0.022312
N       -0.390135        0.426643        0.034582
10
  Step 11: 11.0 fs
C       -1.836804       -0.058312        0.009527
H       -2.383077        0.484494        0.770666
H       -2.113789        0.395125       -0.959756
H       -2.077000       -1.112059        0.007788
C        1.784344        0.109643       -0.005951
H        2.190415       -0.226607        0.876782
H        2.329135       -0.383885       -0.830539
H        1.756332        1.166914       -0.128882
N        0.462931       -0.492280       -0.024291
N       -0.396530        0.424970        0.040115
10
  Step 12: 12.0 fs
C       -1.839332       -0.053702        0.011118
H       -2.360566        0.478661        0.756781
H       -2.129672        0.404377       -1.012527
H       -2.059640       -1.092553        0.016655
C        1.779390        0.109286       -0.017346
H        2.238079       -0.187848        0.996500
H        2.346390       -0.376832       -0.860894
H        1.789381        1.177532       -0.097769
N        0.466661       -0.498691       -0.026191
N       -0.402625        0.422025        0.045905
10
  Step 13: 13.0 fs
C       -1.840727       -0.047658        0.010244
H       -2.345685        0.480068        0.754163
H       -2.146997        0.406294       -1.052200
H       -2.039894       -1.086083        0.026581
C        1.776083        0.107566       -0.028123
H        2.283703       -0.146545        1.102692
H        2.362723       -0.365610       -0.883327
H        1.820332        1.197048       -0.068180
N        0.468218       -0.503960       -0.027991
N       -0.408086        0.417699        0.051861
10
  Step 14: 14.0 fs
C       -1.840856       -0.040266        0.006233
H       -2.341539        0.491355        0.765437
H       -2.163313        0.398858       -1.071881
H       -2.019066       -1.094193        0.037271
C        1.775236        0.104993       -0.037125
H        2.319816       -0.103232        1.178795
H        2.376262       -0.349857       -0.893574
H        1.846857        1.218855       -0.041657
N        0.467528       -0.507940       -0.029682
N       -0.412663        0.412035        0.057889
10
  Step 15: 15.0 fs
C       -1.840010       -0.031903       -0.000676
H       -2.346502        0.510120        0.786759
H       -2.177153        0.382017       -1.069081
H       -1.997586       -1.112203        0.048522
C        1.777101        0.102414       -0.043843
H        2.343606       -0.060563        1.219104
H        2.386385       -0.330488       -0.890401
H        1.866838        1.235735       -0.019637
N        0.464649       -0.510592       -0.031272
N       -0.416180        0.405208        0.063897
10
  Step 16: 16.0 fs
C       -1.838701       -0.023117       -0.009558
H       -2.355880        0.530694        0.810061
H       -2.187983        0.357298       -1.045248
H       -1.975613       -1.131902        0.060043
C        1.781591        0.100606       -0.047855
H        2.354053       -0.021322        1.222143
H        2.393951       -0.309579       -0.875483
H        1.878556        1.242646       -0.003608
N        0.459761       -0.511972       -0.032793
N       -0.418528        0.397498        0.069798
10
  Step 17: 17.0 fs
C       -1.837334       -0.014561       -0.019104
H       -2.364844        0.547453        0.827437
H       -2.196548        0.327853       -1.006426
H       -1.953588       -1.145557        0.071435
C        1.788366        0.100130       -0.048666
H        2.350867        0.011905        1.188269
H        2.401311       -0.290120       -0.853066
H        1.880842        1.237850        0.004979
N        0.453151       -0.512229       -0.034293
N       -0.419684        0.389280        0.075515
10
  Step 18: 18.0 fs
C       -1.835984       -0.006971       -0.027720
H       -2.369955        0.556585        0.833528
H       -2.205644        0.298695       -0.964586
H       -1.932329       -1.148026        0.082262
C        1.796887        0.101290       -0.045764
H        2.334342        0.036660        1.119472
H        2.411845       -0.275522       -0.829226
H        1.873131        1.223090        0.004810
N        0.445207       -0.511607       -0.035840
N       -0.419719        0.381009        0.080979
10
  Step 19: 19.0 fs
C       -1.834372       -0.001073       -0.033671
H       -2.369529        0.556488        0.826127
H       -2.220197        0.275971       -0.936586
H       -1.912906       -1.137473        0.092208
C        1.806507        0.104061       -0.038954
H        2.306046        0.050530        1.021145
H        2.428428       -0.268551       -0.809872
H        1.855428        1.203437       -0.005238
N        0.436407       -0.510439       -0.037520
N       -0.418810        0.373210        0.086130
10
  Step 20: 20.0 fs
C       -1.832121        0.002681       -0.035784
H       -2.363606        0.547673        0.806124
H       -2.244409        0.264035       -0.935914
H       -1.896466       -1.115407        0.101170
C        1.816439        0.108066       -0.029082
H        2.271447        0.051086        0.907902
H        2.451304       -0.270023       -0.798151
H        1.828245        1.186397       -0.025989
N        0.427307       -0.509138       -0.039420
N       -0.417216        0.366458        0.090927
10
  Step 21: 21.0 fs
C       -1.829209        0.004371       -0.034422
H       -2.354069        0.532849        0.777581
H       -2.276618        0.262330       -0.961471
H       -1.884099       -1.086642        0.109309
C        1.825327        0.112797       -0.019172
H        2.245911        0.035540        0.815536
H        2.477294       -0.278393       -0.793430
H        1.792591        1.179277       -0.057622
N        0.418504       -0.508171       -0.041618
N       -0.415250        0.361340        0.095357
10
  Step 22: 22.0 fs
C       -1.825958        0.004493       -0.031307
H       -2.344788        0.516922        0.747544
H       -2.309323        0.266558       -0.999472
H       -1.876737       -1.058884        0.117006
C        1.831017        0.118145       -0.014298
H        2.255687       -0.000199        0.800045
H        2.501342       -0.290704       -0.792718
H        1.750286        1.184762       -0.098811
N        0.410583       -0.508000       -0.044173
N       -0.413225        0.358390        0.099437
10
  Step 23: 23.0 fs
C       -1.822621        0.003599       -0.028436
H       -2.341119        0.506273        0.724840
H       -2.334423        0.272207       -1.034997
H       -1.875046       -1.041187        0.124716
C        1.833177        0.124182       -0.015676
H        2.304557       -0.055807        0.869382
H        2.518889       -0.304075       -0.792981
H        1.704392        1.199259       -0.146117
N        0.404005       -0.509004       -0.047136
N       -0.411415        0.357993        0.103189
10
  Step 24: 24.0 fs
C       -1.819319        0.002087       -0.027206
H       -2.347477        0.506063        0.716243
H       -2.346454        0.276193       -1.058122
H       -1.879243       -1.040171        0.132659
C        1.834013        0.130307       -0.019355
H        2.364372       -0.118830        0.969424
H        2.527019       -0.316393       -0.791972
H        1.658917        1.215772       -0.194757
N        0.399058       -0.511380       -0.050537
N       -0.410004        0.360306        0.106628
10
  Step 25: 25.0 fs
C       -1.816298        0.000136       -0.028017
H       -2.364075        0.516981        0.722177
H       -2.342843        0.276871       -1.064079
H       -1.888938       -1.056143        0.140464
C        1.834977        0.135916       -0.022536
H        2.414325       -0.176462        1.060109
H        2.524551       -0.326332       -0.788059
H        1.617953        1.227480       -0.239960
N        0.395860       -0.515092       -0.054343
N       -0.409059        0.365218        0.109739
10
  Step 26: 26.0 fs
C       -1.814038       -0.002259       -0.030359
H       -2.386399        0.534810        0.736617
H       -2.323337        0.273735       -1.052159
H       -1.903054       -1.082770        0.147162
C        1.836368        0.140729       -0.024264
H        2.446323       -0.221451        1.125013
H        2.512103       -0.333466       -0.780729
H        1.584954        1.229797       -0.277870
N        0.394365       -0.519864       -0.058452
N       -0.408506        0.372362        0.112487
10
  Step 27: 27.0 fs
C       -1.813011       -0.005231       -0.033223
H       -2.408128        0.553353        0.751351
H       -2.289869        0.267347       -1.025437
H       -1.919984       -1.110810        0.151587
C        1.837956        0.144610       -0.024284
H        2.458058       -0.250225        1.158526
H        2.492012       -0.338379       -0.771037
H        1.562429        1.220919       -0.305785
N        0.394382       -0.525239       -0.062713
N       -0.408167        0.381164        0.114816
10
  Step 28: 28.0 fs
C       -1.813374       -0.008982       -0.035403
H       -2.424148        0.567351        0.759897
H       -2.246881        0.259551       -0.991619
H       -1.937943       -1.132128        0.152876
C        1.839365        0.147398       -0.022449
H        2.449241       -0.260905        1.158981
H        2.467918       -0.342584       -0.761537
H        1.551763        1.201874       -0.322193
N        0.395607       -0.530644       -0.066945
N       -0.407801        0.390925        0.116666
10
  Step 29: 29.0 fs
C       -1.814867       -0.013741       -0.035550
H       -2.431559        0.573528        0.758540
H       -2.201308        0.253672       -0.963593
H       -1.955285       -1.141580        0.150649
C        1.840254        0.148817       -0.018578
H        2.420385       -0.252447        1.126409
H        2.443977       -0.348118       -0.755679
H        1.553113        1.176374       -0.326805
N        0.397686       -0.535479       -0.070966
N       -0.407158        0.400906        0.117989
10
  Step 30: 30.0 fs
C       -1.816968       -0.019675       -0.032434
H       -2.429721        0.570728        0.746279
H       -2.160618        0.253718       -0.956291
H       -1.970702       -1.137510        0.145039
C        1.840422        0.148425       -0.012554
H        2.372842       -0.224623        1.062614
H        2.423548       -0.356615       -0.756482
H        1.565371        1.150557       -0.320625
N        0.400254       -0.539182       -0.074608
N       -0.406012        0.410403        0.118763
10
  Step 31: 31.0 fs
C       -1.819263       -0.026655       -0.025747
H       -2.420145        0.559927        0.724656
H       -2.128531        0.261566       -0.976914
H       -1.983364       -1.121900        0.136681
C        1.839781        0.145676       -0.004679
H        2.310092       -0.178983        0.973734
H        2.408032       -0.368249       -0.764979
H        1.586379        1.132123       -0.305896
N        0.402979       -0.541279       -0.077738
N       -0.404186        0.418805        0.119004
10
  Step 32: 32.0 fs
C       -1.821555       -0.034089       -0.016697
H       -2.406612        0.544478        0.697888
H       -2.103362        0.274731       -1.017792
H       -1.993037       -1.100430        0.126658
C        1.837950        0.140350        0.003542
H        2.241625       -0.121787        0.878306
H        2.396777       -0.381431       -0.779519
H        1.613673        1.127827       -0.285505
N        0.405589       -0.541404       -0.080252
N       -0.401578        0.425626        0.118754
10
  Step 33: 33.0 fs
C       -1.823544       -0.041130       -0.007391
H       -2.395047        0.530101        0.672688
H       -2.081618        0.288235       -1.063208
H       -2.000145       -1.081916        0.116310
C        1.833528        0.133243        0.008105
H        2.189371       -0.068068        0.822047
H        2.388109       -0.393562       -0.796175
H        1.645377        1.139978       -0.261965
N        0.407903       -0.539311       -0.082079
N       -0.398182        0.430520        0.118078
10
  Step 34: 34.0 fs
C       -1.824694       -0.047051        0.000188
H       -2.392200        0.523564        0.656573
H       -2.061129        0.297706       -1.099397
H       -2.005525       -1.075720        0.106838
C        1.824732        0.125690        0.003946
H        2.178687       -0.033452        0.861620
H        2.380665       -0.402320       -0.810122
H        1.680274        1.165240       -0.236996
N        0.409853       -0.534884       -0.083181
N       -0.394108        0.433303        0.117053
10
  Step 35: 35.0 fs
C       -1.824573       -0.051452        0.004850
H       -2.402177        0.529007        0.653867
H       -2.041333        0.300505       -1.118026
H       -2.009694       -1.086885        0.098909
C        1.812687        0.117683       -0.007186
H        2.199497       -0.012696        0.973831
H        2.374211       -0.406725       -0.817849
H        1.717165        1.196798       -0.211825
N        0.411442       -0.528152       -0.083574
N       -0.389574        0.433965        0.115765
10
  Step 36: 36.0 fs
C       -1.823234       -0.054263        0.006410
H       -2.423362        0.544665        0.662592
H       -2.022656        0.295604       -1.115728
H       -2.012221       -1.112726        0.092629
C        1.799723        0.109210       -0.020050
H        2.226837        0.002868        1.095825
H        2.369552       -0.407279       -0.818053
H        1.754663        1.226257       -0.187136
N        0.412745       -0.519307       -0.083328
N       -0.384883        0.432676        0.114322
10
  Step 37: 37.0 fs
C       -1.821162       -0.055675        0.005434
H       -2.449456        0.564029        0.676134
H       -2.006087        0.283272       -1.093193
H       -2.011910       -1.144573        0.087876
C        1.787115        0.100914       -0.031713
H        2.248047        0.015074        1.193959
H        2.368120       -0.405603       -0.811337
H        1.791059        1.245811       -0.163368
N        0.413912       -0.508719       -0.082542
N       -0.380402        0.429786        0.112854
10
  Step 38: 38.0 fs
C       -1.818900       -0.056061        0.002875
H       -2.473242        0.579867        0.687456
H       -1.993096        0.265121       -1.055340
H       -2.007539       -1.172639        0.084616
C        1.775459        0.093539       -0.040949
H        2.258781        0.023285        1.256498
H        2.371553       -0.403983       -0.799589
H        1.824370        1.250161       -0.141167
N        0.415150       -0.496919       -0.081344
N       -0.376543        0.425804        0.111515
10
  Step 39: 39.0 fs
C       -1.816770       -0.055929       -0.000064
H       -2.489272        0.586993        0.691793
H       -1.985727        0.244387       -1.012392
H       -1.998427       -1.189624        0.082977
C        1.765157        0.087607       -0.047176
H        2.257720        0.026573        1.280246
H        2.381067       -0.404707       -0.785002
H        1.852614        1.237511       -0.121536
N        0.416693       -0.484581       -0.079898
N       -0.373757        0.421363        0.110466
10
  Step 40: 40.0 fs
C       -1.814801       -0.055851       -0.001963
H       -2.494530        0.582830        0.687064
H       -1.986541        0.225756       -0.979665
H       -1.984535       -1.191795        0.083201
C        1.756630        0.083296       -0.050081
H        2.244514        0.024131        1.265005
H        2.396692       -0.409323       -0.769002
H        1.874122        1.209764       -0.105771
N        0.418770       -0.472456       -0.078395
N       -0.372499        0.417168        0.109859
10
  Step 41: 41.0 fs
C       -1.812795       -0.056298       -0.001634
H       -2.488515        0.567364        0.673770
H       -1.997764        0.213621       -0.972031
H       -1.966408       -1.179173        0.085626
C        1.750362        0.080366       -0.049542
H        2.219232        0.015292        1.212036
H        2.416795       -0.418155       -0.751729
H        1.887866        1.172797       -0.095392
N        0.421548       -0.461282       -0.077033
N       -0.373171        0.413898        0.109807
10
  Step 42: 42.0 fs
C       -1.810487       -0.057374        0.000977
H       -2.473330        0.543132        0.654950
H       -2.019400        0.208999       -0.993107
H       -1.945084       -1.155520        0.090660
C        1.746829        0.078163       -0.045632
H        2.182571       -0.000515        1.124612
H        2.438323       -0.430357       -0.732491
H        1.893756        1.136345       -0.092138
N        0.425058       -0.451673       -0.076001
N       -0.376035        0.412113        0.110369
10
  Step 43: 43.0 fs
C       -1.807630       -0.058773        0.004510
H       -2.453890        0.515281        0.636180
H       -2.048322        0.208870       -1.031887
H       -1.921932       -1.128189        0.098694
C        1.746291        0.075804       -0.038798
H        2.136959       -0.023837        1.011035
H        2.457738       -0.444442       -0.710821
H        1.892696        1.112244       -0.097822
N        0.429155       -0.444040       -0.075458
N       -0.381143        0.412174        0.111529
10
  Step 44: 44.0 fs
C       -1.803918       -0.060060        0.007045
H       -2.437489        0.491002        0.624898
H       -2.079898        0.209028       -1.072300
H       -1.898427       -1.107042        0.110009
C        1.748455        0.072716       -0.030587
H        2.089845       -0.055834        0.893442
H        2.472057       -0.458897       -0.687384
H        1.886044        1.109173       -0.113718
N        0.433504       -0.438537       -0.075519
N       -0.388288        0.414198        0.113207
10
  Step 45: 45.0 fs
C       -1.799115       -0.060914        0.007069
H       -2.430976        0.476824        0.627603
H       -2.109956        0.206337       -1.101805
H       -1.875743       -1.100978        0.124612
C        1.752026        0.069393       -0.024868
H        2.058678       -0.100944        0.821180
H        2.479558       -0.472662       -0.664250
H        1.874934        1.126598       -0.139203
N        0.437616       -0.435074       -0.076245
N       -0.397012        0.418076        0.115260
10
  Step 46: 46.0 fs
C       -1.793395       -0.061238        0.003997
H       -2.436297        0.474553        0.645675
H       -2.135501        0.199119       -1.113252
H       -1.854429       -1.112889        0.141957
C        1.755445        0.067411       -0.025884
H        2.061678       -0.167016        0.846028
H        2.480104       -0.485438       -0.644539
H        1.860395        1.154949       -0.170795
N        0.440925       -0.433369       -0.077645
N       -0.406673        0.423521        0.117504
10
  Step 47: 47.0 fs
C       -1.787465       -0.061190       -0.001765
H       -2.448971        0.480140        0.674011
H       -2.154726        0.186880       -1.104084
H       -1.834560       -1.137735        0.160726
C        1.759313        0.067300       -0.031381
H        2.088706       -0.246972        0.940640
H        2.475080       -0.497747       -0.631613
H        1.843810        1.182499       -0.203540
N        0.442872       -0.433013       -0.079664
N       -0.416540        0.430144        0.119738
10
  Step 48: 48.0 fs
C       -1.782215       -0.061158       -0.009187
H       -2.461596        0.487011        0.704420
H       -2.167038        0.170075       -1.075672
H       -1.816106       -1.165870        0.179015
C        1.764778        0.068385       -0.036787
H        2.120440       -0.322753        1.048382
H        2.466600       -0.510412       -0.627590
H        1.826867        1.200466       -0.233021
N        0.443062       -0.433545       -0.082180
N       -0.425900        0.437531        0.121775
10
  Step 49: 49.0 fs
C       -1.778301       -0.061628       -0.016976
H       -2.467978        0.489644        0.729721
H       -2.173398        0.150123       -1.033646
H       -1.799143       -1.188110        0.194886
C        1.772017        0.070156       -0.039919
H        2.147569       -0.383221        1.139535
H        2.456595       -0.523930       -0.632721
H        1.811331        1.204025       -0.256113
N        0.441307       -0.434508       -0.085022
N       -0.434121        0.445295        0.123458
10
  Step 50: 50.0 fs
C       -1.775945       -0.063074       -0.023663
H       -2.464599        0.484742        0.745339
H       -2.176955        0.129512       -0.988811
H       -1.783847       -1.198302        0.206813
C        1.780681        0.072228       -0.040202
H        2.167149       -0.423928        1.202911
H        2.446160       -0.538007       -0.645726
H        1.798920        1.192290       -0.271003
N        0.437582       -0.435481       -0.088007
N       -0.440693        0.453089        0.124653
10
  Step 51: 51.0 fs
C       -1.774918       -0.065885       -0.027698
H       -2.450626        0.471243        0.749469
H       -2.183070        0.111498       -0.956256
H       -1.770409       -1.193967        0.213900
C        1.790335        0.074052       -0.037643
H        2.178486       -0.443298        1.234393
H        2.435340       -0.551410       -0.664302
H        1.791190        1.168027       -0.277050
N        0.431975       -0.436112       -0.090980
N       -0.445253        0.460627        0.125246
10
  Step 52: 52.0 fs
C       -1.774773       -0.070228       -0.027983
H       -2.427648        0.450074        0.742943
H       -2.196874        0.098740       -0.948976
H       -1.758926       -1.176301        0.215995
C        1.800609        0.074812       -0.032375
H        2.181590       -0.440775        1.232273
H        2.423493       -0.562294       -0.685685
H        1.789377        1.137515       -0.274742
N        0.424652       -0.436127       -0.093824
N       -0.447584        0.467681        0.125140
10
  Step 53: 53.0 fs
C       -1.775227       -0.075900       -0.024714
H       -2.399716        0.424197        0.729409
H       -2.218738        0.091583       -0.968194
H       -1.749301       -1.150335        0.213773
C        1.811209        0.073501       -0.024508
H        2.176748       -0.416287        1.195932
H        2.409923       -0.568833       -0.707280
H        1.794231        1.109779       -0.265616
N        0.415840       -0.435336       -0.096462
N       -0.447622        0.474087        0.124265
10
  Step 54: 54.0 fs
C       -1.776241       -0.082338       -0.019463
H       -2.373315        0.398633        0.715404
H       -2.243432        0.088124       -1.002525
H       -1.741175       -1.124854        0.208709
C        1.821880        0.069217       -0.014158
H        2.164631       -0.370559        1.126261
H        2.394362       -0.569781       -0.727159
H        1.805925        1.093971       -0.251775
N        0.405834       -0.433639       -0.098856
N       -0.445449        0.479748        0.122582
10
  Step 55: 55.0 fs
C       -1.777736       -0.088821       -0.014291
H       -2.356401        0.379676        0.709341
H       -2.264327        0.085984       -1.037260
H       -1.733940       -1.110921        0.202726
C        1.832298        0.061702       -0.001769
H        2.147091       -0.306472        1.028528
H        2.377204       -0.564799       -0.744339
H        1.824101        1.094629       -0.234877
N        0.395001       -0.431032       -0.100993
N       -0.441306        0.484634        0.120091
10
  Step 56: 56.0 fs
C       -1.779594       -0.094740       -0.010762
H       -2.354892        0.371971        0.717529
H       -2.276721        0.083468       -1.061345
H       -1.726958       -1.116979        0.197273
C        1.841821        0.051877        0.011062
H        2.129835       -0.232457        0.921406
H        2.359500       -0.554481       -0.758687
H        1.847896        1.108717       -0.215574
N        0.383798       -0.427615       -0.102869
N       -0.435588        0.488798        0.116836
10
  Step 57: 57.0 fs
C       -1.781913       -0.099823       -0.009367
H       -2.368771        0.375252        0.739497
H       -2.278385        0.079742       -1.068676
H       -1.720019       -1.143235        0.192450