6
  Step 0: 0.0 fs
C        0.000001        0.665090        0.000001
H        0.925306        1.240815       -0.000004
H       -0.925308        1.240805       -0.000006
C       -0.000000       -0.665090        0.000000
H       -0.925308       -1.240818       -0.000002
H        0.925299       -1.240804       -0.000003
6
  Step 1: 1.0 fs
C        0.001499        0.674012        0.006738
H        0.883072        1.234698       -0.046034
H       -0.861200        1.228623       -0.010231
C       -0.011009       -0.674422       -0.001936
H       -0.899630       -1.233112       -0.018357
H        0.990994       -1.225319        0.017446
6
  Step 2: 2.0 fs
C        0.003476        0.680392        0.013294
H        0.856315        1.235754       -0.090937
H       -0.820400        1.229577       -0.020417
C       -0.019609       -0.682630       -0.003756
H       -0.885642       -1.233948       -0.036138
H        1.041840       -1.204729        0.033925
6
  Step 3: 3.0 fs
C        0.006307        0.682429        0.019612
H        0.855492        1.248330       -0.134596
H       -0.819820        1.253353       -0.030954
C       -0.024231       -0.688687       -0.005313
H       -0.891270       -1.249302       -0.053035
H        1.069039       -1.177835        0.048321
6
  Step 4: 4.0 fs
C        0.009533        0.680457        0.025508
H        0.878047        1.269377       -0.175974
H       -0.853109        1.295067       -0.041511
C       -0.024714       -0.692274       -0.006501
H       -0.913444       -1.277683       -0.068499
H        1.069306       -1.146027        0.059674
6
  Step 5: 5.0 fs
C        0.012270        0.676373        0.030549
H        0.911733        1.290473       -0.212033
H       -0.898947        1.339892       -0.050623
C       -0.022059       -0.693722       -0.007306
H       -0.940438       -1.311326       -0.081438
H        1.044247       -1.112426        0.067340
6
  Step 6: 6.0 fs
C        0.013951        0.672056        0.034269
H        0.943726        1.303446       -0.239111
H       -0.938874        1.374976       -0.056795
C       -0.017797       -0.693471       -0.007782
H       -0.960042       -1.341524       -0.090617
H        1.001039       -1.081857        0.071159
6
  Step 7: 7.0 fs
C        0.014352        0.668746        0.036334
H        0.965273        1.303263       -0.254427
H       -0.962233        1.393011       -0.059131
C       -0.013721       -0.691678       -0.008028
H       -0.964346       -1.362009       -0.095133
H        0.953858       -1.061152        0.071661
6
  Step 8: 8.0 fs
C        0.013415        0.667071        0.036585
H        0.972120        1.288155       -0.256535
H       -0.964333        1.391014       -0.057307
C       -0.011722       -0.688170       -0.008167
H       -0.950261       -1.369469       -0.094559
H        0.922384       -1.058400        0.070034
6
  Step 9: 9.0 fs
C        0.011179        0.667170        0.035017
H        0.963761        1.259047       -0.245308
H       -0.944706        1.369109       -0.051434
C       -0.012917       -0.682771       -0.008272
H       -0.919281       -1.363500       -0.088956
H        0.920997       -1.078808        0.067250
6
  Step 10: 10.0 fs
C        0.007775        0.668702        0.031786
H        0.943494        1.219458       -0.221973
H       -0.907126        1.330571       -0.042032
C       -0.016523       -0.675747       -0.008273
H       -0.877615       -1.346901       -0.078863
H        0.945493       -1.119150        0.062913
6
  Step 11: 11.0 fs
C        0.003502        0.670724        0.027219
H        0.919220        1.175745       -0.189207
H       -0.861411        1.283162       -0.030105
C       -0.020287       -0.667659       -0.008008
H       -0.836195       -1.326183       -0.065263
H        0.978343       -1.169130        0.055837
6
  Step 12: 12.0 fs
C       -0.001001        0.671634        0.021784
H        0.903369        1.136643       -0.150741
H       -0.825671        1.240585       -0.017091
C       -0.021847       -0.658906       -0.007355
H       -0.808929       -1.310876       -0.049330
H        1.003378       -1.217807        0.045354
6
  Step 13: 13.0 fs
C       -0.004734        0.669737        0.015908
H        0.908320        1.110512       -0.109840
H       -0.822035        1.219186       -0.004204
C       -0.019736       -0.649916       -0.006304
H       -0.806183       -1.308491       -0.031896
H        1.011373       -1.257094        0.031588
6
  Step 14: 14.0 fs
C       -0.007131        0.664769        0.009767
H        0.937212        1.100847       -0.067730
H       -0.858265        1.225246        0.008474
C       -0.013922       -0.641758       -0.004957
H       -0.827200       -1.317833       -0.013246
H        0.999050       -1.282120        0.015230
6
  Step 15: 15.0 fs
C       -0.008588        0.658521        0.003409
H        0.980099        1.104860       -0.024355
H       -0.917747        1.248701        0.021290
C       -0.005521       -0.636067       -0.003449
H       -0.861562       -1.329966        0.006304
H        0.967330       -1.290815       -0.002760
6
  Step 16: 16.0 fs
C       -0.009658        0.653382       -0.003006
H        1.021529        1.116901        0.019604
H       -0.976838        1.274744        0.033907
C        0.003913       -0.634242       -0.001879
H       -0.897207       -1.335234        0.025999
H        0.921054       -1.284170       -0.021341
6
  Step 17: 17.0 fs
C       -0.010558        0.651024       -0.009184
H        1.048911        1.131932        0.062247
H       -1.019174        1.293044        0.045563
C        0.012720       -0.636723       -0.000306
H       -0.925447       -1.327647        0.044845
H        0.870104       -1.267458       -0.039656
6
  Step 18: 18.0 fs
C       -0.011287        0.652118       -0.014805
H        1.055014        1.146631        0.101198
H       -1.036593        1.298401        0.055535
C        0.019095       -0.642741        0.001268
H       -0.941581       -1.305219        0.061888
H        0.830342       -1.251308       -0.057437
6
  Step 19: 19.0 fs
C       -0.011785        0.656496       -0.019573
H        1.037556        1.159393        0.134179
H       -1.026662        1.289175        0.063321
C        0.021376       -0.650650        0.002898
H       -0.944326       -1.269222        0.076349
H        0.819393       -1.248787       -0.075300
6
  Step 20: 20.0 fs
C       -0.011953        0.663402       -0.023261
H        0.998462        1.170137        0.159411
H       -0.991665        1.266600        0.068725
C        0.019154       -0.659001        0.004604
H       -0.935873       -1.223775        0.087756
H        0.843507       -1.265186       -0.093746
6
  Step 21: 21.0 fs
C       -0.011611        0.671591       -0.025758
H        0.944143        1.180542        0.176030
H       -0.939549        1.235201        0.072009
C        0.013951       -0.667149        0.006222
H       -0.922701       -1.175853        0.096109
H        0.890408       -1.292594       -0.111536
6
  Step 22: 22.0 fs
C       -0.010364        0.679277       -0.027150
H        0.886149        1.194553        0.184573
H       -0.886365        1.203959        0.074271
C        0.008301       -0.674657        0.007448
H       -0.915606       -1.134608        0.101979
H        0.940569       -1.318728       -0.126229
6
  Step 23: 23.0 fs
C       -0.007578        0.684255       -0.027745
H        0.840016        1.218269        0.187120
H       -0.855574        1.185566        0.077565
C        0.004446       -0.680919        0.007995
H       -0.925649       -1.108290        0.106219
H        0.978685       -1.335058       -0.135737
6
  Step 24: 24.0 fs
C       -0.002937        0.684872       -0.027857
H        0.818692        1.257059        0.185937
H       -0.864848        1.188744        0.083598
C        0.003431       -0.685546        0.007726
H       -0.955604       -1.099808        0.109080
H        0.996073       -1.337755       -0.138921
6
  Step 25: 25.0 fs
C        0.002837        0.681355       -0.027418
H        0.823386        1.309929        0.181095
H       -0.908355        1.208776        0.091512
C        0.004884       -0.688601        0.006690
H       -0.996390       -1.105747        0.109751
H        0.989643       -1.326460       -0.135546
6
  Step 26: 26.0 fs
C        0.008624        0.675500       -0.026034
H        0.843526        1.367942        0.170331
H       -0.964123        1.232604        0.098641
C        0.007644       -0.690346        0.005047
H       -1.033960       -1.120021        0.107086
H        0.961067       -1.303521       -0.126164
6
  Step 27: 27.0 fs
C        0.013714        0.669269       -0.023374
H        0.865888        1.419549        0.151500
H       -1.012505        1.249395        0.102800
C        0.010329       -0.690861        0.003005
H       -1.056915       -1.137182        0.100390
H        0.917482       -1.274432       -0.112148
6
  Step 28: 28.0 fs
C        0.017761        0.664078       -0.019344
H        0.880964        1.455673        0.124022
H       -1.041872        1.253338        0.102949
C        0.011411       -0.689840        0.000791
H       -1.058896       -1.153412        0.089630
H        0.872696       -1.248615       -0.095686
6
  Step 29: 29.0 fs
C        0.020584        0.660756       -0.014046
H        0.883835        1.471006        0.088767
H       -1.046974        1.242382        0.098884
C        0.009385       -0.686666       -0.001382
H       -1.038586       -1.166549        0.075295
H        0.845124       -1.238078       -0.079238
6
  Step 30: 30.0 fs
C        0.022092        0.659660       -0.007716
H        0.873343        1.463734        0.047531
H       -1.027145        1.217091        0.090954
C        0.003681       -0.681018       -0.003423
H       -0.999504       -1.176129        0.058287
H        0.846681       -1.250132       -0.064141
6
  Step 31: 31.0 fs
C        0.022301        0.660694       -0.000675
H        0.851720        1.435403        0.002614
H       -0.986228        1.180538        0.079967
C       -0.004364       -0.673456       -0.005400
H       -0.950463       -1.183926        0.039842
H        0.871657       -1.279797       -0.050074
6
  Step 32: 32.0 fs
C        0.021427        0.663161        0.006701
H        0.825193        1.391553       -0.043617
H       -0.934319        1.139122        0.067237
C       -0.012124       -0.664978       -0.007414
H       -0.905144       -1.194515        0.021336
H        0.903764       -1.314239       -0.036456
6
  Step 33: 33.0 fs
C        0.020047        0.665637        0.014056
H        0.804454        1.342054       -0.089495
H       -0.890046        1.103491        0.054503
C       -0.017151       -0.656365       -0.009478
H       -0.877697       -1.213815        0.003896
H        0.929090       -1.341837       -0.023402
6
  Step 34: 34.0 fs
C        0.018976        0.666376        0.021169
H        0.802438        1.298911       -0.134786
H       -0.876718        1.086326        0.043246
C       -0.018244       -0.648356       -0.011516
H       -0.874203       -1.244091       -0.011848
H        0.940054       -1.355405       -0.011540
6
  Step 35: 35.0 fs
C        0.018445        0.664648        0.027979
H        0.826570        1.269593       -0.179964
H       -0.904504        1.093796        0.033740
C       -0.015708       -0.642075       -0.013417
H       -0.888643       -1.280132       -0.025479
H        0.934274       -1.351720       -0.001677
6
  Step 36: 36.0 fs
C        0.017711        0.661581        0.034329
H        0.871520        1.252029       -0.223546
H       -0.958520        1.120183        0.025553
C       -0.010703       -0.638774       -0.015094
H       -0.909346       -1.312695       -0.036468
H        0.913203       -1.330758        0.005442
6
  Step 37: 37.0 fs
C        0.016005        0.659081        0.039829
H        0.923270        1.238779       -0.261452
H       -1.014452        1.154754        0.018583
C       -0.004613       -0.639202       -0.016493
H       -0.926379       -1.333933       -0.044248
H        0.882224       -1.295962        0.009269
6
  Step 38: 38.0 fs
C        0.013082        0.658539        0.044042
H        0.968191        1.223467       -0.289230
H       -1.054366        1.188809        0.013063
C        0.001059       -0.643186       -0.017586
H       -0.933824       -1.339542       -0.048411
H        0.851939       -1.255204        0.009579
6
  Step 39: 39.0 fs
C        0.009027        0.660472        0.046645
H        0.997299        1.203057       -0.303751
H       -1.068868        1.216985        0.009284
C        0.004671       -0.649594       -0.018367
H       -0.929445       -1.328726       -0.048761
H        0.838234       -1.220494        0.006539
6
  Step 40: 40.0 fs
C        0.004055        0.664696        0.047466
H        1.006349        1.177348       -0.303616
H       -1.054714        1.236524        0.007473
C        0.004983       -0.656905       -0.018824
H       -0.914333       -1.303859       -0.045323
H        0.855420       -1.202428        0.000441
6
  Step 41: 41.0 fs
C       -0.001539        0.670563        0.046479
H        0.995085        1.148135       -0.288973
H       -1.013412        1.246918        0.007768
C        0.002303       -0.664078       -0.018911
H       -0.893388       -1.270592       -0.038322
H        0.902958       -1.201312       -0.008707
6
  Step 42: 42.0 fs
C       -0.007352        0.677037        0.043807
H        0.967428        1.118936       -0.261538
H       -0.951709        1.250360        0.010187
C       -0.001377       -0.670559       -0.018575
H       -0.875872       -1.237889       -0.028149
H        0.964432       -1.208173       -0.020918
6
  Step 43: 43.0 fs
C       -0.012803        0.682618        0.039744
H        0.932498        1.095018       -0.224695
H       -0.883511        1.253199        0.014584
C       -0.003674       -0.675732       -0.017818
H       -0.873253       -1.216055       -0.015205
H        1.020809       -1.213778       -0.035735
6
  Step 44: 44.0 fs
C       -0.017155        0.685379        0.034715
H        0.904711        1.082929       -0.183081
H       -0.829840        1.266684        0.020747
C       -0.003140       -0.679087       -0.016709
H       -0.891719       -1.211351        0.000221
H        1.058861       -1.212798       -0.052271
6
  Step 45: 45.0 fs
C       -0.019949        0.683664        0.029101
H        0.898837        1.088284       -0.140762
H       -0.809059        1.301638        0.028771
C        0.000143       -0.680668       -0.015348
H       -0.925527       -1.221870        0.017685
H        1.071948       -1.203325       -0.069444
6
  Step 46: 46.0 fs
C       -0.021518        0.677503        0.023054
H        0.919404        1.111754       -0.098999
H       -0.820562        1.356288        0.039007
C        0.005056       -0.680983       -0.013817
H       -0.961155       -1.240368        0.036219
H        1.058710       -1.185831       -0.086200
6
  Step 47: 47.0 fs
C       -0.022387        0.668819        0.016613
H        0.956096        1.147269       -0.056953
H       -0.847481        1.415635        0.051221
C        0.010206       -0.680586       -0.012164
H       -0.985930       -1.259462        0.054487
H        1.022746       -1.162916       -0.101713
6
  Step 48: 48.0 fs
C       -0.022640        0.660014        0.009942
H        0.992797        1.185604       -0.014489
H       -0.873154        1.463797        0.064450
C        0.014169       -0.679763       -0.010393
H       -0.992103       -1.274058        0.071162
H        0.973719       -1.139769       -0.115736
6
  Step 49: 49.0 fs
C       -0.022133        0.652980        0.003347
H        1.017013        1.218726        0.026970
H       -0.887732        1.490523        0.077530
C        0.015424       -0.678416       -0.008440
H       -0.976982       -1.281501        0.085203
H        0.927990       -1.124451       -0.129045
6
  Step 50: 50.0 fs
C       -0.020743        0.648906       -0.002821
H        1.022098        1.241282        0.065190
H       -0.887156        1.491070        0.089451
C        0.012678       -0.676181       -0.006192
H       -0.942518       -1.281458        0.096009
H        0.904023       -1.125693       -0.143321
6
  Step 51: 51.0 fs
C       -0.018417        0.648368       -0.008235
H        1.006228        1.250482        0.097832
H       -0.871313        1.464772        0.099481
C        0.005963       -0.672894       -0.003651
H       -0.895621       -1.276275        0.103612
H        0.909427       -1.146502       -0.159378
6
  Step 52: 52.0 fs
C       -0.015133        0.651311       -0.012644
H        0.971619        1.245945        0.122892
H       -0.843818        1.414891        0.107307
C       -0.002766       -0.668804       -0.001097
H       -0.848504       -1.271675        0.108828
H        0.934254       -1.180418       -0.175403
6
  Step 53: 53.0 fs
C       -0.010814        0.656892       -0.015926
H        0.924789        1.230087        0.139137
H       -0.813335        1.349701        0.113374
C       -0.010708       -0.664139        0.001021
H       -0.816631       -1.276188        0.113162
H        0.961877       -1.216849       -0.188191
6
  Step 54: 54.0 fs
C       -0.005319        0.663344       -0.018186
H        0.877821        1.209194        0.146695
H       -0.795255        1.283361        0.119395
C       -0.015770       -0.659055        0.002333
H       -0.810781       -1.296026        0.117841
H        0.979775       -1.247118       -0.195165
6
  Step 55: 55.0 fs
C        0.001287        0.668396       -0.019763
H        0.847993        1.193670        0.147504
H       -0.808096        1.231796        0.128120
C       -0.017425       -0.654187        0.002702
H       -0.828810       -1.328134        0.122528
H        0.981520       -1.266030       -0.195000
6
  Step 56: 56.0 fs
C        0.008053        0.670682       -0.020945
H        0.850775        1.194114        0.144285
H       -0.858289        1.201000        0.140812
C       -0.016329       -0.650654        0.002197
H       -0.858941       -1.361644        0.125630
H        0.965453       -1.271447       -0.187492
6
  Step 57: 57.0 fs
C        0.013487        0.670715       -0.021571
H        0.886672        1.212939        0.137744
H       -0.930867        1.183726        0.155221
C       -0.013490       -0.649450        0.000975
H       -0.889024       -1.385407        0.125642
H        0.933733       -1.263951       -0.173362
6
  Step 58: 58.0 fs
C        0.016885        0.670041       -0.021177
H        0.939523        1.242373        0.126044
H       -1.003243        1.170360        0.167731
C       -0.009957       -0.650951       -0.000768
H       -0.911063       -1.392296        0.121799
H        0.892777       -1.247231       -0.154270
6
  Step 59: 59.0 fs
C        0.018352        0.669954       -0.019412
H        0.989823        1.271966        0.107457
H       -1.058580        1.155475        0.175718
C       -0.006906       -0.654727       -0.002792
H       -0.921240       -1.379441        0.114010
H        0.854207       -1.228783       -0.132791
6
  Step 60: 60.0 fs
C        0.018203        0.671044       -0.016182
H        1.023780        1.294141        0.081791
H       -1.087708        1.137425        0.177857
C       -0.005594       -0.659663       -0.004854
H       -0.919238       -1.347523        0.102694
H        0.833529       -1.219025       -0.111859
6
  Step 61: 61.0 fs
C        0.016739        0.673322       -0.011595
H        1.034100        1.304913        0.050127
H       -1.087181        1.116773        0.173770
C       -0.006668       -0.664490       -0.006820
H       -0.908298       -1.300554        0.088701
H        0.841973       -1.225754       -0.093319
6
  Step 62: 62.0 fs
C        0.014286        0.676426       -0.005891
H        1.018473        1.303123        0.014233
H       -1.058251        1.095603        0.163822
C       -0.009236       -0.668427       -0.008752
H       -0.895975       -1.246113        0.073313
H        0.876148       -1.247300       -0.077003
6
  Step 63: 63.0 fs
C        0.011300        0.679683        0.000586
H        0.978945        1.290104       -0.023833
H       -1.007524        1.077594        0.149185
C       -0.011105       -0.671105       -0.010789
H       -0.893959       -1.194670        0.058091
H        0.920741       -1.274610       -0.061934
6
  Step 64: 64.0 fs
C        0.008495        0.682053        0.007406
H        0.922814        1.270198       -0.062159
H       -0.949218        1.068617        0.132054
C       -0.010170       -0.672316       -0.012992
H       -0.912952       -1.155573        0.044310
H        0.959824       -1.298622       -0.047676
6
  Step 65: 65.0 fs
C        0.006736        0.682081        0.014138
H        0.864009        1.251591       -0.099708
H       -0.905365        1.076737        0.115374
C       -0.005699       -0.672228       -0.015271
H       -0.953228       -1.131454        0.032323
H        0.982777       -1.313619       -0.034480
6
  Step 66: 66.0 fs
C        0.006291        0.678308        0.020555
H        0.821503        1.245455       -0.137190
H       -0.895491        1.108463        0.101289
C        0.001485       -0.671412       -0.017447
H       -1.002697       -1.118339        0.021851
H        0.984642       -1.317104       -0.022946
6
  Step 67: 67.0 fs
C        0.006134        0.670473        0.026709
H        0.809109        1.259732       -0.176215
H       -0.918532        1.161003        0.089537
C        0.009867       -0.670478       -0.019337
H       -1.045852       -1.110830        0.012706
H        0.965312       -1.309255       -0.013783
6
  Step 68: 68.0 fs
C        0.005132        0.660250        0.032535
H        0.823535        1.290846       -0.215741
H       -0.955352        1.222029        0.078785
C        0.017896       -0.669809       -0.020811
H       -1.071304       -1.105380        0.004998
H        0.929494       -1.293088       -0.007627
6
  Step 69: 69.0 fs
C        0.003125        0.650246        0.037636
H        0.849684        1.326413       -0.251105
H       -0.987011        1.278134        0.068416
C        0.024075       -0.669427       -0.021795
H       -1.073300       -1.100455       -0.001007
H        0.887333       -1.275093       -0.004897
6
  Step 70: 70.0 fs
C        0.000471        0.642697        0.041535
H        0.873642        1.354573       -0.277190
H       -1.002377        1.319816        0.058594
C        0.026963       -0.668956       -0.022274
H       -1.051135       -1.096050       -0.005013
H        0.853807       -1.265054       -0.005708
6
  Step 71: 71.0 fs
C       -0.002429        0.639021        0.043891
H        0.887268        1.367985       -0.290571
H       -0.996970        1.341772        0.049815
C        0.025668       -0.667895       -0.022264
H       -1.008973       -1.093526       -0.006739
H        0.842570       -1.271809       -0.009998
6
  Step 72: 72.0 fs
C       -0.005236        0.639866        0.044527
H        0.887339        1.363478       -0.289703
H       -0.970801        1.342030        0.042666
C        0.020775       -0.666170       -0.021788
H       -0.956703       -1.096059       -0.005893
H        0.855736       -1.295616       -0.017792
6
  Step 73: 73.0 fs
C       -0.007607        0.645131        0.043402
H        0.874261        1.341098       -0.274663
H       -0.927929        1.321952        0.037730
C        0.014453       -0.664127       -0.020883
H       -0.910101       -1.109167       -0.002137
H        0.882855       -1.327061       -0.029047
6
  Step 74: 74.0 fs
C       -0.009120        0.653845        0.040628
H        0.852144        1.304101       -0.247181
H       -0.877679        1.287335        0.035503
C        0.009221       -0.662004       -0.019620
H       -0.885698       -1.139153        0.004881
H        0.910650       -1.354478       -0.043318
6
  Step 75: 75.0 fs
C       -0.009205        0.663996        0.036493
H        0.830101        1.259836       -0.210930
H       -0.836781        1.250034        0.036335
C        0.006394       -0.659995       -0.018088
H       -0.888981       -1.187412        0.015251
H        0.929762       -1.369435       -0.059776
6
  Step 76: 76.0 fs
C       -0.007395        0.672833        0.031451
H        0.822799        1.219819       -0.171222
H       -0.826782        1.225875        0.040453
C        0.005612       -0.658641       -0.016350
H       -0.909741       -1.246434        0.028390
H        0.935581       -1.367570       -0.077400
6
  Step 77: 77.0 fs
C       -0.004167        0.678267        0.025935
H        0.845126        1.195579       -0.132721
H       -0.858439        1.223615        0.047988
C        0.005756       -0.658612       -0.014445
H       -0.932443       -1.304448        0.043127
H        0.927471       -1.348085       -0.095182
6
  Step 78: 78.0 fs
C       -0.000934        0.680320        0.020140
H        0.898813        1.190146       -0.096403
H       -0.918356        1.236913        0.058509
C        0.005761       -0.660281       -0.012405
H       -0.945619       -1.351539        0.058127
H        0.908342       -1.313436       -0.112314
6
  Step 79: 79.0 fs
C        0.001446        0.680451        0.014124
H        0.968021        1.196376       -0.060660
H       -0.982217        1.253562        0.070803
C        0.004697       -0.663489       -0.010248
H       -0.943508       -1.381658        0.072231
H        0.885218       -1.269545       -0.128504
6
  Step 80: 80.0 fs
C        0.002956        0.680028        0.008033
H        1.032389        1.204916       -0.024788
H       -1.031216        1.264918        0.083506
C        0.001680       -0.667565       -0.007949
H       -0.924792       -1.392294        0.084587
H        0.869087       -1.225226       -0.144281
6
  Step 81: 81.0 fs
C        0.003806        0.679791        0.002129
H        1.077299        1.209408        0.010264
H       -1.055098        1.266946        0.095516
C       -0.003912       -0.671582       -0.005463
H       -0.891783       -1.384135        0.094739
H        0.871518       -1.189246       -0.160799
6
  Step 82: 82.0 fs
C        0.004156        0.679979       -0.003297
H        1.095077        1.206749        0.042775
H       -1.049942        1.258776        0.106072
C       -0.011741       -0.674763       -0.002843
H       -0.850931       -1.361633        0.102765
H        0.896784       -1.165278       -0.178480
6
  Step 83: 83.0 fs
C        0.004135        0.680498       -0.007981
H        1.083281        1.196120        0.070906
H       -1.016598        1.241781        0.114768
C       -0.020051       -0.676514       -0.000368
H       -0.813910       -1.334164        0.109536
H        0.937427       -1.150443       -0.195774
6
  Step 84: 84.0 fs
C        0.003939        0.680957       -0.011729
H        1.044015        1.178608        0.093053
H       -0.960922        1.219666        0.121699
C       -0.026291       -0.676158        0.001520
H       -0.796231       -1.315113        0.116717
H        0.979978       -1.139563       -0.209897
6
  Step 85: 85.0 fs
C        0.003934        0.680586       -0.014480
H        0.984850        1.157510        0.108197
H       -0.895760        1.199460        0.127896
C       -0.028504       -0.673261        0.002442
H       -0.808461       -1.314428        0.125614
H        1.012630       -1.129010       -0.218350
6
  Step 86: 86.0 fs
C        0.004536        0.678151       -0.016398
H        0.921165        1.139353        0.116482
H       -0.841733        1.192000        0.135768
C       -0.026475       -0.668393        0.002290
H       -0.845701       -1.329408        0.135394
H        1.028211       -1.117368       -0.219641
6
  Step 87: 87.0 fs
C        0.005552        0.672298       -0.017835
H        0.875967        1.134062        0.119648
H       -0.819338        1.207818        0.148212
C       -0.021370       -0.662893        0.001211
H       -0.891813       -1.348154        0.143476
H        1.024247       -1.104941       -0.213368
6
  Step 88: 88.0 fs
C        0.005659        0.662808       -0.018959
H        0.868776        1.150248        0.119714
H       -0.831730        1.246953        0.165422
C       -0.014693       -0.658057       -0.000559
H       -0.931385       -1.359511        0.147464
H        1.002648       -1.093490       -0.200178
6
  Step 89: 89.0 fs
C        0.003792        0.651555       -0.019427
H        0.897443        1.185829        0.116076
H       -0.863258        1.296932        0.183826
C       -0.007875       -0.654796       -0.002761
H       -0.954740       -1.357067        0.146048
H        0.969908       -1.086315       -0.181750
6
  Step 90: 90.0 fs
C        0.000228        0.641506       -0.018684
H        0.941726        1.228509        0.106051
H       -0.895836        1.342950        0.199122
C       -0.002282       -0.653570       -0.005120
H       -0.957713       -1.338759        0.138924
H        0.937029       -1.088258       -0.160638
6
  Step 91: 91.0 fs
C       -0.004241        0.635136       -0.016403
H        0.981923        1.265790        0.087992
H       -0.917782        1.374631        0.208412
C        0.000928       -0.654388       -0.007402
H       -0.940652       -1.305852        0.126591
H        0.916727       -1.104534       -0.139532
6
  Step 92: 92.0 fs
C       -0.008915        0.633806       -0.012547
H        1.006095        1.289788        0.062099
H       -0.923652        1.386559        0.210323
C        0.001434       -0.656916       -0.009517
H       -0.908809       -1.262957        0.110284
H        0.916197       -1.137416       -0.119967
6
  Step 93: 93.0 fs
C       -0.013230        0.637808       -0.007285
H        1.008765        1.296907        0.029783