6
  Step 0: 0.0 fs
C       -0.000001        0.665093       -0.000001
H        0.925314        1.240817       -0.000001
H       -0.925307        1.240817        0.000015
C        0.000000       -0.665093       -0.000001
H       -0.925312       -1.240812       -0.000001
H        0.925318       -1.240820        0.000015
6
  Step 1: 1.0 fs
C       -0.007646        0.656275        0.005944
H        0.967979        1.199287       -0.031227
H       -0.921527        1.239818       -0.015279
C        0.009601       -0.655755       -0.002840
H       -0.908332       -1.247021       -0.003200
H        0.838599       -1.198284        0.012748
6
  Step 2: 2.0 fs
C       -0.014333        0.648471        0.011644
H        1.002154        1.156595       -0.060987
H       -0.918306        1.240041       -0.030083
C        0.015821       -0.645606       -0.005610
H       -0.892379       -1.252170       -0.006309
H        0.790802       -1.178596        0.025524
6
  Step 3: 3.0 fs
C       -0.019356        0.642643        0.016854
H        1.022025        1.113374       -0.087575
H       -0.915953        1.242317       -0.044022
C        0.016153       -0.634248       -0.008331
H       -0.878892       -1.255692       -0.009311
H        0.810950       -1.199979        0.039425
6
  Step 4: 4.0 fs
C       -0.022353        0.639732        0.021358
H        1.025249        1.071880       -0.109468
H       -0.914314        1.246993       -0.056749
C        0.012265       -0.624056       -0.010895
H       -0.869451       -1.257790       -0.012216
H        0.878621       -1.247762        0.053854
6
  Step 5: 5.0 fs
C       -0.023306        0.640435        0.024999
H        1.013077        1.035589       -0.125641
H       -0.912840        1.253933       -0.067884
C        0.007223       -0.618178       -0.013062
H       -0.865025       -1.259248       -0.015002
H        0.956268       -1.295324        0.066402
6
  Step 6: 6.0 fs
C       -0.022539        0.644852        0.027688
H        0.990550        1.008835       -0.135814
H       -0.910820        1.262659       -0.077045
C        0.002838       -0.618271       -0.014651
H       -0.865736       -1.261074       -0.017602
H        1.020556       -1.326963        0.075224
6
  Step 7: 7.0 fs
C       -0.020703        0.652336        0.029413
H        0.966297        0.996339       -0.140595
H       -0.907699        1.272597       -0.083893
C       -0.000144       -0.624467       -0.015556
H       -0.871105       -1.264153       -0.019913
H        1.060703       -1.336670        0.079409
6
  Step 8: 8.0 fs
C       -0.018620        0.661647        0.030219
H        0.950507        1.002216       -0.141253
H       -0.903347        1.283281       -0.088189
C       -0.001467       -0.635893       -0.015722
H       -0.880225       -1.268929       -0.021817
H        1.072194       -1.323274        0.078641
6
  Step 9: 9.0 fs
C       -0.016885        0.671332        0.030152
H        0.950042        1.028246       -0.138822
H       -0.898191        1.294449       -0.089827
C       -0.001094       -0.651115       -0.015131
H       -0.891760       -1.275234       -0.023208
H        1.053946       -1.288261        0.073001
6
  Step 10: 10.0 fs
C       -0.015478        0.680164        0.029189
H        0.963700        1.072289       -0.133181
H       -0.893087        1.305970       -0.088826
C        0.000754       -0.668425       -0.013817
H       -0.903973       -1.282336       -0.024009
H        1.008633       -1.235772        0.062980
6
  Step 11: 11.0 fs
C       -0.013843        0.687344        0.027257
H        0.983134        1.128487       -0.123259
H       -0.888946        1.317637       -0.085274
C        0.003292       -0.685887       -0.011886
H       -0.914883       -1.289219       -0.024180
H        0.946276       -1.174349        0.049702
6
  Step 12: 12.0 fs
C       -0.011347        0.692466        0.024312
H        0.998255        1.189243       -0.108081
H       -0.886257        1.328894       -0.079258
C        0.004605       -0.701180       -0.009540
H       -0.922581       -1.294989       -0.023708
H        0.890812       -1.119485        0.035165
6
  Step 13: 13.0 fs
C       -0.007640        0.695415        0.020394
H        1.001614        1.247341       -0.087457
H       -0.884872        1.338692       -0.070835
C        0.001764       -0.711864       -0.007006
H       -0.925781       -1.299272       -0.022603
H        0.878959       -1.091011        0.021498
6
  Step 14: 14.0 fs
C       -0.002728        0.696303        0.015628
H        0.989549        1.296927       -0.062027
H       -0.884169        1.345602       -0.060085
C       -0.006251       -0.716773       -0.004370
H       -0.924701       -1.302552       -0.020911
H        0.926176       -1.096356        0.008985
6
  Step 15: 15.0 fs
C        0.003084        0.695351        0.010210
H        0.962157        1.334077       -0.033016
H       -0.883483        1.348087       -0.047211
C       -0.016565       -0.716593       -0.001622
H       -0.921393       -1.306153       -0.018738
H        1.003169       -1.123210       -0.003279
6
  Step 16: 16.0 fs
C        0.009285        0.692760        0.004380
H        0.922895        1.357062       -0.001965
H       -0.882532        1.344799       -0.032617
C       -0.025768       -0.712375        0.001171
H       -0.918541       -1.311521       -0.016253
H        1.074366       -1.156918       -0.015251
6
  Step 17: 17.0 fs
C        0.015194        0.688627       -0.001606
H        0.878414        1.366792        0.029600
H       -0.881663        1.334860       -0.016921
C       -0.031910       -0.704926        0.003891
H       -0.917689       -1.319150       -0.013653
H        1.119894       -1.188568       -0.026231
6
  Step 18: 18.0 fs
C        0.020014        0.682941       -0.007509
H        0.837840        1.366951        0.060475
H       -0.881853        1.318049       -0.000901
C       -0.034248       -0.695027        0.006418
H       -0.918279       -1.327853       -0.011123
H        1.131697       -1.213384       -0.035456
6
  Step 19: 19.0 fs
C        0.022972        0.675691       -0.013136
H        0.810816        1.363092        0.090047
H       -0.884445        1.294874        0.014586
C       -0.032738       -0.683622        0.008637
H       -0.918127       -1.334946       -0.008817
H        1.107963       -1.228741       -0.042250
6
  Step 20: 20.0 fs
C        0.023612        0.667145       -0.018333
H        0.803530        1.359583        0.118069
H       -0.890714        1.266511        0.028719
C       -0.027719       -0.671817        0.010448
H       -0.914852       -1.337228       -0.006846
H        1.050854       -1.233397       -0.046062
6
  Step 21: 21.0 fs
C        0.022028        0.658098       -0.022924
H        0.815594        1.356625        0.143819
H       -0.901389        1.234641        0.040803
C       -0.019862       -0.660733        0.011772
H       -0.907221       -1.332023       -0.005281
H        0.967141       -1.228035       -0.046557
6
  Step 22: 22.0 fs
C        0.018775        0.649782       -0.026682
H        0.840723        1.350592        0.165643
H       -0.916346        1.201209        0.050326
C       -0.010389       -0.651169        0.012580
H       -0.895938       -1.317891       -0.004158
H        0.871617       -1.217570       -0.043896
6
  Step 23: 23.0 fs
C        0.014575        0.643483       -0.029373
H        0.870405        1.337152        0.181445
H       -0.934605        1.168216        0.056956
C       -0.001412       -0.643105        0.012931
H       -0.883854       -1.294998       -0.003495
H        0.791228       -1.215061       -0.039130
6
  Step 24: 24.0 fs
C        0.010074        0.640198       -0.030814
H        0.897171        1.313894        0.189494
H       -0.954599        1.137568        0.060510
C        0.004626       -0.635719        0.012940
H       -0.875526       -1.265126       -0.003330
H        0.757825       -1.239862       -0.033840
6
  Step 25: 25.0 fs
C        0.005744        0.640520       -0.030923
H        0.916015        1.281089        0.188916
H       -0.974495        1.111018        0.060928
C        0.007366       -0.629131        0.012627
H       -0.876001       -1.231355       -0.003761
H        0.778283       -1.296562       -0.028241
6
  Step 26: 26.0 fs
C        0.001851        0.644595       -0.029717
H        0.924935        1.241614        0.179843
H       -0.992474        1.090166        0.058262
C        0.008879       -0.625229        0.011902
H       -0.888686       -1.197192       -0.004907
H        0.828359       -1.365396       -0.021073
6
  Step 27: 27.0 fs
C       -0.001573        0.651977       -0.027313
H        0.925304        1.200590        0.163385
H       -1.006963        1.076376        0.052688
C        0.011033       -0.625694        0.010721
H       -0.913390       -1.165398       -0.006827
H        0.882295       -1.424733       -0.011684
6
  Step 28: 28.0 fs
C       -0.004736        0.661593       -0.023902
H        0.921888        1.164777        0.141447
H       -1.016794        1.070717        0.044507
C        0.014487       -0.631028        0.009109
H       -0.945999       -1.137287       -0.009482
H        0.924685       -1.462363       -0.000329
6
  Step 29: 29.0 fs
C       -0.007994        0.671951       -0.019719
H        0.921613        1.141190        0.116222
H       -1.021355        1.073926        0.034108
C        0.019057       -0.640786        0.007129
H       -0.979863       -1.113104       -0.012732
H        0.947759       -1.473318        0.012306
6
  Step 30: 30.0 fs
C       -0.011558        0.681543       -0.014972
H        0.929876        1.134638        0.089330
H       -1.020710        1.086353        0.021922
C        0.024199       -0.653940        0.004870
H       -1.008157       -1.092951       -0.016345
H        0.948354       -1.456954        0.025389
6
  Step 31: 31.0 fs
C       -0.015178        0.689205       -0.009812
H        0.946523        1.145824        0.061424
H       -1.015562        1.107864        0.008357
C        0.029244       -0.669095        0.002436
H       -1.025643       -1.077342       -0.020067
H        0.927074       -1.416050        0.038107
6
  Step 32: 32.0 fs
C       -0.018156        0.694242       -0.004361
H        0.965517        1.171427        0.032683
H       -1.006888        1.137690       -0.006235
C        0.033347       -0.684516       -0.000060
H       -1.029533       -1.067277       -0.023675
H        0.889889       -1.357908        0.049871
6
  Step 33: 33.0 fs
C       -0.019705        0.696378        0.001222
H        0.978626        1.205920        0.003609
H       -0.995322        1.174232       -0.021547
C        0.035199       -0.698023       -0.002553
H       -1.019785       -1.064168       -0.027010
H        0.851864       -1.296672        0.060794
6
  Step 34: 34.0 fs
C       -0.019337        0.695669        0.006731
H        0.979472        1.243522       -0.024746
H       -0.980724        1.214941       -0.037244
C        0.032967       -0.707125       -0.005075
H       -0.999289       -1.069767       -0.030001
H        0.838116       -1.252585        0.072271
6
  Step 35: 35.0 fs
C       -0.016982        0.692460        0.011924
H        0.965056        1.279118       -0.050998
H       -0.962317        1.256433       -0.052866
C        0.025707       -0.710166       -0.007685
H       -0.974080       -1.086199       -0.032676
H        0.867309       -1.238813        0.086071
6
  Step 36: 36.0 fs
C       -0.012941        0.687308        0.016551
H        0.936040        1.308750       -0.073709
H       -0.939433        1.294913       -0.067779
C        0.015246       -0.707510       -0.010223
H       -0.952399       -1.115785       -0.035134
H        0.928192       -1.247640        0.101283
6
  Step 37: 37.0 fs
C       -0.007783        0.680846        0.020384
H        0.896592        1.330064       -0.091688
H       -0.912359        1.326772       -0.081216
C        0.004665       -0.700578       -0.012360
H       -0.940730       -1.159785       -0.037442
H        0.993460       -1.262418        0.114811
6
  Step 38: 38.0 fs
C       -0.002228        0.673653        0.023258
H        0.853894        1.342708       -0.104225
H       -0.882818        1.349160       -0.092419
C       -0.004085       -0.690832       -0.013840
H       -0.938797       -1.216143       -0.039507
H        1.042730       -1.271488        0.124022
6
  Step 39: 39.0 fs
C        0.002954        0.666209        0.025086
H        0.817166        1.348401       -0.111216
H       -0.853958        1.360459       -0.100798
C       -0.010495       -0.679769       -0.014540
H       -0.939629       -1.278481       -0.041080
H        1.066047       -1.269255        0.127536
6
  Step 40: 40.0 fs
C        0.007090        0.658932        0.025862
H        0.795588        1.350104       -0.113029
H       -0.829881        1.360548       -0.106042
C       -0.014765       -0.668933       -0.014430
H       -0.934709       -1.338139       -0.041915
H        1.060210       -1.253767        0.124869
6
  Step 41: 41.0 fs
C        0.009812        0.652308        0.025614
H        0.795073        1.349857       -0.109987
H       -0.814791        1.350765       -0.108154
C       -0.017244       -0.659732       -0.013532
H       -0.918434       -1.387135       -0.041887
H        1.026472       -1.225430        0.116187
6
  Step 42: 42.0 fs
C        0.011160        0.647011        0.024366
H        0.815905        1.346883       -0.102000
H       -0.811919        1.333511       -0.107390
C       -0.018347       -0.653207       -0.011926
H       -0.889279       -1.419869       -0.041029
H        0.970695       -1.187096        0.102313
6
  Step 43: 43.0 fs
C        0.011483        0.643814        0.022135
H        0.852927        1.337848       -0.088702
H       -0.822534        1.311558       -0.104108
C       -0.018780       -0.649744       -0.009756
H       -0.849533       -1.433839       -0.039507
H        0.905843       -1.145320        0.084931
6
  Step 44: 44.0 fs
C        0.011204        0.643328        0.018959
H        0.897938        1.319002       -0.069978
H       -0.845375        1.287315       -0.098599
C       -0.019837       -0.648763       -0.007243
H       -0.804999       -1.430132       -0.037598
H        0.855034       -1.111833        0.066678
6
  Step 45: 45.0 fs
C        0.010617        0.645789        0.014930
H        0.942437        1.288246       -0.046343
H       -0.876776        1.262458       -0.091015
C       -0.022938       -0.648896       -0.004605
H       -0.764699       -1.413969       -0.035659
H        0.845562       -1.100115        0.050091
6
  Step 46: 46.0 fs
C        0.009821        0.651020        0.010197
H        0.979458        1.245959       -0.018946
H       -0.911532        1.238078       -0.081422
C       -0.027695       -0.649062       -0.001890
H       -0.740107       -1.394751       -0.034110
H        0.884808       -1.112987        0.035579
6
  Step 47: 47.0 fs
C        0.008763        0.658484        0.004963
H        1.004520        1.194930        0.010663
H       -0.944158        1.215101       -0.069940
C       -0.031480       -0.649117        0.000960
H       -0.741384       -1.382772       -0.033350
H        0.951321       -1.139182        0.022117
6
  Step 48: 48.0 fs
C        0.007274        0.667344       -0.000542
H        1.016290        1.139984        0.040871
H       -0.970046        1.194618       -0.056854
C       -0.031970       -0.649437        0.003916
H       -0.770748       -1.382138       -0.033513
H        1.018360       -1.166071        0.009336
6
  Step 49: 49.0 fs
C        0.005107        0.676569       -0.006088
H        1.016719        1.087240        0.070335
H       -0.986206        1.178008       -0.042601
C       -0.028572       -0.650717        0.006840
H       -0.819666       -1.387247       -0.034291
H        1.068340       -1.186228       -0.002390
6
  Step 50: 50.0 fs
C        0.001996        0.685061       -0.011472
H        1.010505        1.043143        0.098206
H       -0.991665        1.166920       -0.027698
C       -0.021895       -0.653615        0.009547
H       -0.874380       -1.388487       -0.035137
H        1.092266       -1.196414       -0.012445
6
  Step 51: 51.0 fs
C       -0.002216        0.691778       -0.016533
H        1.003440        1.013275        0.124209
H       -0.987565        1.163157       -0.012654
C       -0.012924       -0.658386        0.011853
H       -0.922520       -1.378595       -0.035582
H        1.086708       -1.195842       -0.020238
6
  Step 52: 52.0 fs
C       -0.007375        0.695866       -0.021135
H        0.999601        1.001213        0.148265
H       -0.976942        1.168452        0.002117
C       -0.002683       -0.664795        0.013601
H       -0.955729       -1.354469       -0.035363
H        1.052616       -1.185578       -0.025307
6
  Step 53: 53.0 fs
C       -0.012923        0.696757       -0.025129
H        0.999261        1.007980        0.169939
H       -0.963843        1.184066        0.016327
C        0.007701       -0.672133        0.014681
H       -0.969820       -1.316567       -0.034413
H        0.996364       -1.169105       -0.027442
6
  Step 54: 54.0 fs
C       -0.018062        0.694240       -0.028330
H        0.999179        1.032207        0.188138
H       -0.951684        1.210068        0.029738
C        0.016704       -0.679187        0.015049
H       -0.964425       -1.268019       -0.032833
H        0.932881       -1.153931       -0.026897
6
  Step 55: 55.0 fs
C       -0.022074        0.688528       -0.030523
H        0.994684        1.070684        0.201303
H       -0.941585        1.244519        0.041958
C        0.022331       -0.684215        0.014751
H       -0.943602       -1.214392       -0.030920
H        0.887211       -1.152620       -0.024532
6
  Step 56: 56.0 fs
C       -0.024542        0.680282       -0.031493
H        0.981856        1.119043        0.207871
H       -0.932041        1.283221        0.052296
C        0.023235       -0.685500        0.013879
H       -0.916795       -1.163556       -0.029193
H        0.882309       -1.177047       -0.021245
6
  Step 57: 57.0 fs
C       -0.025353        0.670562       -0.031072
H        0.958741        1.172393        0.206711
H       -0.920432        1.320535        0.059839
C        0.020772       -0.682592        0.012488
H       -0.898775       -1.125082       -0.028386
H        0.914772       -1.225074       -0.016881
6
  Step 58: 58.0 fs
C       -0.024585        0.660659       -0.029176
H        0.925740        1.225931        0.197351
H       -0.904920        1.350745        0.063682
C        0.018070       -0.676492        0.010605
H       -0.903407       -1.106974       -0.029146
H        0.959921       -1.281660       -0.010748
6
  Step 59: 59.0 fs
C       -0.022427        0.651865       -0.025825
H        0.885617        1.275566        0.180077
H       -0.885628        1.369338        0.063187
C        0.017062       -0.668885        0.008271
H       -0.932316       -1.110497       -0.031527
H        0.995969       -1.332243       -0.002708
6
  Step 60: 60.0 fs
C       -0.019131        0.645274       -0.021151
H        0.843159        1.318431        0.155907
H       -0.864859        1.373718        0.058145
C        0.017715       -0.661685        0.005537
H       -0.972924       -1.129464       -0.034931
H        1.011242       -1.367783        0.006803
6
  Step 61: 61.0 fs
C       -0.014968        0.641599       -0.015375
H        0.804401        1.353184        0.126398
H       -0.846836        1.363562        0.048802
C        0.019164       -0.656574        0.002466
H       -1.009171       -1.155154       -0.038582
H        1.001390       -1.383788        0.017091
6
  Step 62: 62.0 fs
C       -0.010167        0.641039       -0.008773
H        0.775499        1.379952        0.093333
H       -0.837035        1.340755        0.035792
C        0.020594       -0.654631       -0.000856
H       -1.029695       -1.180284       -0.041875
H        0.966820       -1.379101        0.027400
6
  Step 63: 63.0 fs
C       -0.004857        0.643289       -0.001630
H        0.761152        1.399655        0.058393
H       -0.841039        1.308829        0.019980
C        0.021353       -0.656144       -0.004330
H       -1.029092       -1.199999       -0.044433
H        0.912298       -1.355935        0.037039
6
  Step 64: 64.0 fs
C        0.000888        0.647741        0.005780
H        0.763187        1.412966        0.023020
H       -0.862420        1.271503        0.002216
C        0.020711       -0.660499       -0.007860
H       -1.006900       -1.211666       -0.046087
H        0.848687       -1.321425        0.045627
6
  Step 65: 65.0 fs
C        0.006902        0.653775        0.013198
H        0.779932        1.419573       -0.011528
H       -0.900228        1.231030       -0.016704
C        0.017593       -0.666077       -0.011387
H       -0.967161       -1.214884       -0.046882
H        0.795521       -1.289779        0.053565
6
  Step 66: 66.0 fs
C        0.012802        0.660904        0.020343
H        0.806898        1.418306       -0.043966
H       -0.948183        1.187931       -0.035915
C        0.010984       -0.670622       -0.014907
H       -0.919119       -1.212103       -0.047109
H        0.776911       -1.278961        0.062275
6
  Step 67: 67.0 fs
C        0.018025        0.668724        0.026912
H        0.838407        1.408009       -0.072946
H       -0.996719        1.142415       -0.054360
C        0.001573       -0.672607       -0.018346
H       -0.877599       -1.209426       -0.047285
H        0.802291       -1.295310        0.072604
6
  Step 68: 68.0 fs
C        0.022005        0.676781        0.032611
H        0.869197        1.388370       -0.097229
H       -1.036624        1.095911       -0.070879
C       -0.007652       -0.672024       -0.021427
H       -0.859491       -1.215508       -0.047958
H        0.855732       -1.325974        0.082920
6
  Step 69: 69.0 fs
C        0.024315        0.684509        0.037194
H        0.895410        1.360322       -0.115870
H       -1.061339        1.051241       -0.084482
C       -0.013854       -0.669616       -0.023837
H       -0.872912       -1.235385       -0.049292
H        0.913998       -1.354074        0.090609
6
  Step 70: 70.0 fs
C        0.024713        0.691263        0.040502
H        0.915090        1.326126       -0.128358
H       -1.067839        1.012115       -0.094519
C       -0.016224       -0.666503       -0.025390
H       -0.909413       -1.264491       -0.050896
H        0.960794       -1.369136        0.093849
6
  Step 71: 71.0 fs
C        0.023167        0.696375        0.042463
H        0.928171        1.289057       -0.134653
H       -1.056815        0.982638       -0.100792
C       -0.015368       -0.663868       -0.026017
H       -0.951991       -1.292652       -0.052168
H        0.987476       -1.366692        0.091813
6
  Step 72: 72.0 fs
C        0.019893        0.699201        0.043101
H        0.936149        1.252902       -0.135121
H       -1.032784        0.966934       -0.103626
C       -0.012165       -0.662529       -0.025713
H       -0.986142       -1.311155       -0.052647
H        0.990462       -1.345925        0.084371
6
  Step 73: 73.0 fs
C        0.015391        0.699170        0.042523
H        0.941395        1.221315       -0.130360
H       -1.003875        0.968835       -0.103902
C       -0.007391       -0.662797       -0.024513
H       -1.003216       -1.315157       -0.052100
H        0.970137       -1.308689        0.071927
6
  Step 74: 74.0 fs
C        0.010418        0.695865        0.040882
H        0.946100        1.197081       -0.120936
H       -0.980285        0.991477       -0.102825
C       -0.001869       -0.664453       -0.022506
H       -0.999602       -1.303271       -0.050477
H        0.931696       -1.259913        0.055453
6
  Step 75: 75.0 fs
C        0.005667        0.689164        0.038307
H        0.951326        1.181597       -0.107209
H       -0.969437        1.036125       -0.101223
C        0.003220       -0.666689       -0.019850
H       -0.975828       -1.276952       -0.047860
H        0.887810       -1.209002        0.036545
6
  Step 76: 76.0 fs
C        0.001341        0.679441        0.034841
H        0.956641        1.174736       -0.089344
H       -0.970574        1.100377       -0.098729
C        0.006239       -0.668094       -0.016748
H       -0.936883       -1.240616       -0.044451
H        0.860252       -1.170231        0.017110
6
  Step 77: 77.0 fs
C       -0.002876        0.667706        0.030467
H        0.960354        1.175019       -0.067506
H       -0.975064        1.177208       -0.093925
C        0.006054       -0.667217       -0.013349
H       -0.893704       -1.202387       -0.040608
H        0.870255       -1.156305       -0.001767
6
  Step 78: 78.0 fs
C       -0.007388        0.655486        0.025207
H        0.960257        1.180075       -0.042100
H       -0.972572        1.256800       -0.085385
C        0.003904       -0.663644       -0.009700
H       -0.863477       -1.174083       -0.036883
H        0.916948       -1.166299       -0.020259
6
  Step 79: 79.0 fs
C       -0.012357        0.644520        0.019186
H        0.954582        1.187247       -0.013893
H       -0.956277        1.329430       -0.072493
C        0.002749       -0.658183       -0.005874
H       -0.862487       -1.166960       -0.033851
H        0.978252       -1.187685       -0.038258
6
  Step 80: 80.0 fs
C       -0.017691        0.636451        0.012627
H        0.942784        1.194174        0.015990
H       -0.924018        1.387417       -0.055521
C        0.004261       -0.652482       -0.002048
H       -0.891394       -1.182928       -0.031648
H        1.032201       -1.208445       -0.054764
6
  Step 81: 81.0 fs
C       -0.023155        0.632535        0.005808
H        0.926047        1.199209        0.046185
H       -0.877743        1.425978       -0.035388
C        0.008001       -0.648596        0.001551
H       -0.933901       -1.213215       -0.029875
H        1.065701       -1.221399       -0.068530
6
  Step 82: 82.0 fs
C       -0.028455        0.633345       -0.000974
H        0.907371        1.201602        0.075296
H       -0.822802        1.443679       -0.013396
C        0.012786       -0.648125        0.004727
H       -0.971393       -1.246706       -0.028040
H        1.073047       -1.223265       -0.078527
6
  Step 83: 83.0 fs
C       -0.033178        0.638523       -0.007438
H        0.891165        1.201452        0.102095
H       -0.767961        1.443345        0.009028
C        0.017604       -0.651674        0.007337
H       -0.991679       -1.275414       -0.025857
H        1.053573       -1.213480       -0.084050
6
  Step 84: 84.0 fs
C       -0.036695        0.646751       -0.013348
H        0.882165        1.199367        0.125606
H       -0.725153        1.432804        0.030765
C        0.021610       -0.658829        0.009297
H       -0.989161       -1.294954       -0.023246
H        1.011424       -1.194093       -0.084874
6
  Step 85: 85.0 fs
C       -0.038175        0.656082       -0.018544
H        0.883790        1.195960        0.145019
H       -0.707487        1.423580        0.051459
C        0.023845       -0.668337        0.010590
H       -0.963202       -1.303782       -0.020250
H        0.957171       -1.170544       -0.081510
6
  Step 86: 86.0 fs
C       -0.036967        0.664802       -0.022917
H        0.896516        1.191407        0.159508
H       -0.723082        1.424161        0.071383
C        0.023026       -0.678309        0.011293
H       -0.917621       -1.302926       -0.016988
H        0.909820       -1.152532       -0.075480
6
  Step 87: 87.0 fs
C       -0.033149        0.672262       -0.026317
H        0.917502        1.185457        0.168159
H       -0.768465        1.432391        0.090226
C        0.018061       -0.686582        0.011547
H       -0.861882       -1.296803       -0.013674
H        0.892128       -1.151257       -0.068839
6
  Step 88: 88.0 fs
C       -0.027491        0.678699       -0.028515
H        0.941799        1.177829        0.170162
H       -0.830384        1.438092        0.106448
C        0.009642       -0.691479        0.011420
H       -0.812191       -1.294351       -0.010663
H        0.912939       -1.170124       -0.062386
6
  Step 89: 89.0 fs
C       -0.020961        0.684464       -0.029311
H        0.964238        1.168653        0.165100
H       -0.893695        1.431642        0.118167
C        0.000711       -0.692283        0.010851
H       -0.787736       -1.307448       -0.008363
H        0.957933       -1.200475       -0.055085
6
  Step 90: 90.0 fs
C       -0.014389        0.689634       -0.028614
H        0.980939        1.158696        0.153116
H       -0.946513        1.408069        0.124054
C       -0.006029       -0.689256        0.009764
H       -0.797109       -1.341659       -0.006888
H        1.005425       -1.230351       -0.045820
6
  Step 91: 91.0 fs
C       -0.008417        0.694030       -0.026459
H        0.990024        1.149370        0.134898
H       -0.981373        1.366794        0.123534
C       -0.009973       -0.683718        0.008138
H       -0.829878       -1.388292       -0.005922
H        1.039816       -1.251414       -0.034355
6
  Step 92: 92.0 fs
C       -0.003529        0.697309       -0.022982
H        0.991715        1.142591        0.111552
H       -0.994863        1.310436        0.116715
C       -0.011753       -0.677352        0.006014
H       -0.868203       -1.431978       -0.005081
H        1.052932       -1.259435       -0.021134
6
  Step 93: 93.0 fs
C       -0.000019        0.699002       -0.018402
H        0.987940        1.140522        0.084398