6
  Step 0: 0.0 fs
C       -0.000002        0.665097        0.000001
H        0.925306        1.240817       -0.000011
H       -0.925304        1.240824        0.000002
C        0.000002       -0.665097        0.000001
H       -0.925308       -1.240813       -0.000012
H        0.925306       -1.240827        0.000001
6
  Step 1: 1.0 fs
C        0.011596        0.662055        0.006556
H        0.873892        1.211046       -0.039973
H       -0.991334        1.233551       -0.013869
C       -0.000861       -0.651436       -0.002211
H       -0.965704       -1.278286       -0.011999
H        0.955327       -1.292739        0.014106
6
  Step 2: 2.0 fs
C        0.019889        0.659132        0.012927
H        0.844785        1.196552       -0.079444
H       -1.041115        1.219111       -0.026992
C       -0.001692       -0.640345       -0.004327
H       -0.992276       -1.305265       -0.023351
H        0.971918       -1.334090        0.027383
6
  Step 3: 3.0 fs
C        0.022837        0.656321        0.019063
H        0.853141        1.208368       -0.119609
H       -1.066124        1.195337       -0.038466
C       -0.002473       -0.633570       -0.006251
H       -0.998473       -1.315918       -0.033327
H        0.968963       -1.358669        0.038856
6
  Step 4: 4.0 fs
C        0.020875        0.654555        0.024761
H        0.890149        1.241407       -0.159588
H       -1.063515        1.163036       -0.047517
C       -0.003152       -0.632091       -0.007904
H       -0.983007       -1.308121       -0.041285
H        0.945324       -1.363782        0.047684
6
  Step 5: 5.0 fs
C        0.015912        0.655085        0.029571
H        0.933767        1.280808       -0.195130
H       -1.035125        1.125192       -0.053670
C       -0.003612       -0.636026       -0.009221
H       -0.949000       -1.282990       -0.046806
H        0.903869       -1.349932        0.053294
6
  Step 6: 6.0 fs
C        0.009930        0.658305        0.033076
H        0.966522        1.314216       -0.221744
H       -0.988419        1.087256       -0.056967
C       -0.003660       -0.644407       -0.010151
H       -0.904904       -1.245445       -0.049816
H        0.852105       -1.321501        0.055564
6
  Step 7: 7.0 fs
C        0.004921        0.663478        0.035060
H        0.979165        1.334816       -0.236509
H       -0.939052        1.057877       -0.058367
C       -0.003081       -0.654980       -0.010660
H       -0.866377       -1.205317       -0.050712
H        0.804302       -1.288547        0.055063
6
  Step 8: 8.0 fs
C        0.003068        0.669148        0.035530
H        0.968332        1.339877       -0.238074
H       -0.910099        1.047910       -0.059850
C       -0.001804       -0.664548       -0.010746
H       -0.854451       -1.175882       -0.050340
H        0.781108       -1.266658        0.053164
6
  Step 9: 9.0 fs
C        0.005710        0.673998        0.034594
H        0.935243        1.329715       -0.226470
H       -0.918333        1.064265       -0.062989
C       -0.000099       -0.670626       -0.010437
H       -0.882225       -1.165590       -0.049302
H        0.798438       -1.268524        0.051133
6
  Step 10: 10.0 fs
C        0.011801        0.677587        0.032308
H        0.886236        1.307972       -0.203281
H       -0.956556        1.102665       -0.066905
C        0.001639       -0.673268       -0.009738
H       -0.940394       -1.170612       -0.047221
H        0.850621       -1.291424        0.048678
6
  Step 11: 11.0 fs
C        0.018432        0.679844        0.028801
H        0.834866        1.283362       -0.172134
H       -1.002331        1.151358       -0.069207
C        0.003230       -0.674182       -0.008638
H       -1.006055       -1.180867       -0.043291
H        0.915516       -1.321249        0.044564
6
  Step 12: 12.0 fs
C        0.022368        0.680216        0.024422
H        0.802221        1.270488       -0.138386
H       -1.036806        1.199428       -0.068179
C        0.004617       -0.674849       -0.007156
H       -1.059465       -1.188474       -0.037092
H        0.972654       -1.345314        0.038086
6
  Step 13: 13.0 fs
C        0.021329        0.678034        0.019510
H        0.806549        1.282513       -0.105918
H       -1.049816        1.239541       -0.063259
C        0.005759       -0.676026       -0.005347
H       -1.089069       -1.189486       -0.028771
H        1.009705       -1.356445        0.029325
6
  Step 14: 14.0 fs
C        0.015383        0.673849        0.014081
H        0.844610        1.316500       -0.073877
H       -1.037813        1.267386       -0.054645
C        0.006630       -0.677992       -0.003287
H       -1.089911       -1.182807       -0.018821
H        1.020915       -1.351723        0.018823
6
  Step 15: 15.0 fs
C        0.006436        0.669263        0.008075
H        0.895762        1.355885       -0.039990
H       -1.001858        1.280983       -0.042971
C        0.007243       -0.680711       -0.001060
H       -1.062084       -1.169389       -0.007881
H        1.005198       -1.331132        0.007315
6
  Step 16: 16.0 fs
C       -0.003394        0.665575        0.001632
H        0.941032        1.385439       -0.004158
H       -0.947338        1.280982       -0.029149
C        0.007683       -0.683784        0.001252
H       -1.010781       -1.152207        0.003382
H        0.965903       -1.297363       -0.004408
6
  Step 17: 17.0 fs
C       -0.012208        0.663164       -0.004952
H        0.969620        1.396569        0.031981
H       -0.885347        1.272073       -0.014236
C        0.008097       -0.686250        0.003567
H       -0.948012       -1.136998        0.014400
H        0.912565       -1.256728       -0.015649
6
  Step 18: 18.0 fs
C       -0.018086        0.661502       -0.011353
H        0.977022        1.385828        0.066230
H       -0.833606        1.264348        0.000922
C        0.008578       -0.686427        0.005813
H       -0.893803       -1.132876        0.024918
H        0.863472       -1.220480       -0.026102
6
  Step 19: 19.0 fs
C       -0.019354        0.659624       -0.017305
H        0.962931        1.353128        0.096388
H       -0.811327        1.270332        0.016177
C        0.008881       -0.682376        0.007940
H       -0.869830       -1.149714        0.035124
H        0.842791       -1.202803       -0.036179
6
  Step 20: 20.0 fs
C       -0.015748        0.657210       -0.022607
H        0.930755        1.301269        0.120602
H       -0.824893        1.294188        0.031764
C        0.008417       -0.673587        0.009917
H       -0.882008       -1.189863        0.045161
H        0.863297       -1.210557       -0.046421
6
  Step 21: 21.0 fs
C       -0.009000        0.655035       -0.027073
H        0.888866        1.236873        0.137958
H       -0.862111        1.326350        0.047010
C        0.006944       -0.662091        0.011681
H       -0.914874       -1.243926        0.054440
H        0.912448       -1.235234       -0.056143
6
  Step 22: 22.0 fs
C       -0.001974        0.653881       -0.030619
H        0.853329        1.172206        0.149550
H       -0.904873        1.353395        0.060335
C        0.004681       -0.650978        0.013139
H       -0.947839       -1.298180        0.061901
H        0.967004       -1.261947       -0.063653
6
  Step 23: 23.0 fs
C        0.002288        0.653783       -0.033399
H        0.846858        1.123654        0.159072
H       -0.939371        1.366410        0.070245
C        0.001888       -0.642736        0.014213
H       -0.967018       -1.341891        0.066649
H        1.009646       -1.279661       -0.067513
6
  Step 24: 24.0 fs
C        0.001978        0.654704       -0.035575
H        0.883282        1.101146        0.169635
H       -0.957535        1.361727        0.075807
C       -0.001248       -0.638854        0.014860
H       -0.965942       -1.368821        0.068196
H        1.031330       -1.282725       -0.066977
6
  Step 25: 25.0 fs
C       -0.002155        0.657283       -0.036918
H        0.950355        1.099517        0.179021
H       -0.956085        1.339515        0.076659
C       -0.004545       -0.639920        0.015064
H       -0.943361       -1.376406        0.066438
H        1.028689       -1.269310       -0.061900
6
  Step 26: 26.0 fs
C       -0.007941        0.662028       -0.037029
H        1.022527        1.107441        0.182289
H       -0.936139        1.303187        0.073007
C       -0.007748       -0.645627        0.014832
H       -0.902324       -1.365415        0.061596
H        1.002557       -1.240433       -0.052592
6
  Step 27: 27.0 fs
C       -0.013244        0.668471       -0.035712
H        1.079652        1.116881        0.176266
H       -0.904466        1.260106        0.065765
C       -0.010519       -0.654708        0.014171
H       -0.850921       -1.340726        0.054229
H        0.958488       -1.200066       -0.039778
6
  Step 28: 28.0 fs
C       -0.016118        0.675201       -0.033041
H        1.110579        1.123947        0.160134
H       -0.874931        1.222104        0.056637
C       -0.012509       -0.664852        0.013104
H       -0.804186       -1.313077        0.045215
H        0.909198       -1.156133       -0.024591
6
  Step 29: 29.0 fs
C       -0.014797        0.680449       -0.029246
H        1.110534        1.127196        0.134552
H       -0.865634        1.202818        0.047553
C       -0.013630       -0.672979        0.011665
H       -0.782645       -1.298116        0.035543
H        0.876009       -1.120776       -0.008298
6
  Step 30: 30.0 fs
C       -0.008666        0.683116       -0.024554
H        1.079662        1.126762        0.101135
H       -0.885670        1.208756        0.039139
C       -0.014417       -0.676662        0.009911
H       -0.799936       -1.306584        0.025679
H        0.880573       -1.105725        0.008409
6
  Step 31: 31.0 fs
C        0.000823        0.683347       -0.019130
H        1.023670        1.124537        0.062228
H       -0.924770        1.233469        0.030289
C       -0.015529       -0.675963        0.007912
H       -0.848407       -1.333097        0.015416
H        0.924379       -1.112764        0.025646
6
  Step 32: 32.0 fs
C        0.010830        0.681749       -0.013196
H        0.956481        1.125498        0.020675
H       -0.963986        1.264675        0.019845
C       -0.016860       -0.672871        0.005778
H       -0.907055       -1.362553        0.004667
H        0.986129       -1.133258        0.043143
6
  Step 33: 33.0 fs
C        0.018124        0.678482       -0.007023
H        0.901500        1.139035       -0.021095
H       -0.988878        1.292235        0.007573
C       -0.017917       -0.669378        0.003657
H       -0.957536       -1.382282       -0.006143
H        1.042224       -1.157321        0.059753
6
  Step 34: 34.0 fs
C        0.020197        0.673384       -0.000781
H        0.881086        1.175117       -0.062610
H       -0.992424        1.309910       -0.006016
C       -0.018317       -0.666764        0.001692
H       -0.989007       -1.385392       -0.016318
H        1.077727       -1.178379        0.074101
6
  Step 35: 35.0 fs
C        0.016980        0.667057        0.005395
H        0.894769        1.232256       -0.104089
H       -0.973586        1.314650       -0.020049
C       -0.017850       -0.665747        0.000003
H       -0.996681       -1.369505       -0.025136
H        1.085606       -1.192914        0.085019
6
  Step 36: 36.0 fs
C        0.010478        0.661037        0.011167
H        0.922107        1.295858       -0.143252
H       -0.935821        1.306066       -0.033593
C       -0.016371       -0.666643       -0.001325
H       -0.980404       -1.335624       -0.032013
H        1.064034       -1.199476        0.091690
6
  Step 37: 37.0 fs
C        0.002951        0.656600        0.016106
H        0.944454        1.350711       -0.176345
H       -0.887152        1.287009       -0.045934
C       -0.013733       -0.669297       -0.002233
H       -0.944743       -1.288016       -0.036611
H        1.015565       -1.198443        0.093715
6
  Step 38: 38.0 fs
C       -0.003608        0.654052        0.019898
H        0.952191        1.387299       -0.200247
H       -0.841045        1.264678       -0.056952
C       -0.009737       -0.672872       -0.002691
H       -0.900782       -1.235085       -0.038972
H        0.948258       -1.192724        0.091304
6
  Step 39: 39.0 fs
C       -0.007351        0.652844        0.022403
H        0.942143        1.401171       -0.213012
H       -0.815089        1.249935       -0.067405
C       -0.004265       -0.675687       -0.002713
H       -0.867498       -1.189513       -0.039651
H        0.878481       -1.189527        0.085630
6
  Step 40: 40.0 fs
C       -0.007089        0.652332        0.023599
H        0.914958        1.391390       -0.213754
H       -0.822254        1.250824       -0.078263
C        0.002196       -0.675621       -0.002383
H       -0.865529       -1.163614       -0.039465
H        0.830800       -1.201213        0.078882
6
  Step 41: 41.0 fs
C       -0.003176        0.652632        0.023445
H        0.874426        1.360164       -0.202668
H       -0.859801        1.264211       -0.089054
C        0.008267       -0.671605       -0.001818
H       -0.899951       -1.159645       -0.038651
H        0.824418       -1.238733        0.072878
6
  Step 42: 42.0 fs
C        0.002605        0.654315        0.021921
H        0.828770        1.314140       -0.181465
H       -0.912424        1.278810       -0.097810
C        0.012932       -0.664902       -0.001028
H       -0.954888       -1.168695       -0.036620
H        0.853247       -1.298107        0.067144
6
  Step 43: 43.0 fs
C        0.007775        0.657317        0.019210
H        0.793442        1.266842       -0.154046
H       -0.963977        1.284583       -0.102661
C        0.016171       -0.658052        0.000055
H       -1.009158       -1.179990       -0.032722
H        0.894274       -1.362586        0.060049
6
  Step 44: 44.0 fs
C        0.009693        0.660634        0.015702
H        0.790056        1.237284       -0.125651
H       -1.002985        1.276423       -0.102671
C        0.018195       -0.653133        0.001457
H       -1.047695       -1.186399       -0.026779
H        0.928258       -1.416523        0.050796
6
  Step 45: 45.0 fs
C        0.006927        0.663499        0.011635
H        0.830305        1.236426       -0.098720
H       -1.022866        1.253362       -0.097746
C        0.019115       -0.651281        0.003144
H       -1.062733       -1.184626       -0.019038
H        0.944900       -1.450533        0.039537
6
  Step 46: 46.0 fs
C        0.000580        0.666448        0.006939
H        0.899527        1.255572       -0.071288
H       -1.021376        1.217374       -0.088367
C        0.019011       -0.652884        0.005049
H       -1.051933       -1.174049       -0.009991
H        0.940193       -1.460297        0.026915
6
  Step 47: 47.0 fs
C       -0.006918        0.670251        0.001604
H        0.971426        1.278747       -0.041608
H       -1.001055        1.173131       -0.075457
C        0.018064       -0.657684        0.007091
H       -1.017708       -1.156241       -0.000218
H        0.914292       -1.445170        0.013764
6
  Step 48: 48.0 fs
C       -0.013211        0.674787       -0.004157
H        1.026434        1.295245       -0.010141
H       -0.970837        1.128427       -0.060347
C        0.016615       -0.664727        0.009184
H       -0.967903       -1.135135        0.009712
H        0.871439       -1.408207        0.000928
6
  Step 49: 49.0 fs
C       -0.016164        0.679100       -0.010018
H        1.054145        1.300296        0.021434
H       -0.946571        1.093742       -0.044423
C        0.015145       -0.672251        0.011239
H       -0.917666       -1.117767        0.019373
H        0.821872       -1.357714       -0.010905
6
  Step 50: 50.0 fs
C       -0.014125        0.682049       -0.015676
H        1.050390        1.292614        0.051152
H       -0.944921        1.078604       -0.028461
C        0.013921       -0.677709        0.013175
H       -0.887879       -1.113516        0.028666
H        0.784483       -1.309267       -0.021573
6
  Step 51: 51.0 fs
C       -0.006984        0.683062       -0.020911
H        1.015872        1.273213        0.077187
H       -0.969329        1.085276       -0.012289
C        0.012344       -0.678656        0.014957
H       -0.893453       -1.128955        0.037779
H        0.782735       -1.281881       -0.031765
6
  Step 52: 52.0 fs
C        0.003428        0.682300       -0.025553
H        0.956944        1.245735        0.098254
H       -1.006001        1.107729        0.004232
C        0.009425       -0.674714        0.016564
H       -0.929149       -1.161452        0.046634
H        0.824806       -1.282229       -0.042067
6
  Step 53: 53.0 fs
C        0.014216        0.679998       -0.029485
H        0.888386        1.218266        0.114363
H       -1.036914        1.137382        0.020460
C        0.005180       -0.667949        0.017901
H       -0.975343       -1.201291        0.054581
H        0.892557       -1.297709       -0.051465
6
  Step 54: 54.0 fs
C        0.022115        0.675870       -0.032771
H        0.835270        1.205081        0.127981
H       -1.049803        1.167292        0.035302
C        0.000292       -0.660889        0.018842
H       -1.013541       -1.238585        0.060766
H        0.960898       -1.312042       -0.058187
6
  Step 55: 55.0 fs
C        0.024511        0.669475       -0.035620
H        0.822113        1.220753        0.143074
H       -1.039409        1.192869        0.047662
C       -0.004642       -0.655329        0.019305
H       -1.032479       -1.266523        0.064513
H        1.012814       -1.315406       -0.060986
6
  Step 56: 56.0 fs
C        0.021372        0.661632       -0.037942
H        0.848391        1.263633        0.159579
H       -1.006049        1.211567        0.056666
C       -0.009197       -0.652369        0.019266
H       -1.027426       -1.281516        0.065464
H        1.039722       -1.303849       -0.059325
6
  Step 57: 57.0 fs
C        0.014907        0.654368       -0.039282
H        0.891639        1.315750        0.172409
H       -0.954635        1.222970        0.061818
C       -0.013003       -0.652605        0.018740
H       -0.998508       -1.282677        0.063564
H        1.038434       -1.276908       -0.053191
6
  Step 58: 58.0 fs
C        0.007541        0.649275       -0.039275
H        0.931573        1.359707        0.176891
H       -0.894827        1.229652        0.063238
C       -0.015648       -0.656047        0.017756
H       -0.950506       -1.272009        0.059055
H        1.009881       -1.236599       -0.042951
6
  Step 59: 59.0 fs
C        0.001312        0.646769       -0.037836
H        0.957392        1.385255        0.170907
H       -0.841023        1.238003        0.061805
C       -0.016660       -0.661875        0.016349
H       -0.894202       -1.255513        0.052497
H        0.960154       -1.187760       -0.029361
6
  Step 60: 60.0 fs
C       -0.002165        0.646348       -0.035074
H        0.964961        1.387745        0.154252
H       -0.808892        1.256683        0.058840
C       -0.015733       -0.668267        0.014562
H       -0.847137       -1.243928        0.044710
H        0.903748       -1.139384       -0.013546
6
  Step 61: 61.0 fs
C       -0.002236        0.647438       -0.031149
H        0.954092        1.366103        0.127900
H       -0.806227        1.289983        0.054937
C       -0.013404       -0.672736        0.012457
H       -0.828253       -1.249439        0.036454
H        0.866182       -1.105298        0.003282
6
  Step 62: 62.0 fs
C        0.000371        0.650061       -0.026190
H        0.927883        1.322386        0.093701
H       -0.827126        1.332245        0.049321
C       -0.011386       -0.673582        0.010101
H       -0.843552       -1.275947        0.027917
H        0.873512       -1.098483        0.020646
6
  Step 63: 63.0 fs
C        0.003979        0.654437       -0.020391
H        0.894022        1.262930        0.054315
H       -0.858422        1.372251        0.040938
C       -0.010756       -0.671395        0.007553
H       -0.880406       -1.314710        0.018848
H        0.925054       -1.118419        0.038773
6
  Step 64: 64.0 fs
C        0.006422        0.660185       -0.014051
H        0.867684        1.200148        0.012849
H       -0.888029        1.400430        0.029494
C       -0.010942       -0.668238        0.004939
H       -0.920109       -1.352589        0.009238
H        0.993825       -1.151969        0.056933
6
  Step 65: 65.0 fs
C        0.005392        0.666219       -0.007463
H        0.870139        1.150268       -0.028552
H       -0.907754        1.411475        0.015492
C       -0.011117       -0.665862        0.002432
H       -0.948678       -1.379633       -0.000509
H        1.054001       -1.186215        0.073480
6
  Step 66: 66.0 fs
C       -0.000210        0.671756       -0.000782
H        0.912409        1.121886       -0.069806
H       -0.913279        1.403952       -0.000163
C       -0.010862       -0.665200        0.000189
H       -0.958688       -1.390571       -0.009781
H        1.090925       -1.213185        0.086831
6
  Step 67: 67.0 fs
C       -0.009013        0.676940        0.005777
H        0.979894        1.109315       -0.110269
H       -0.904157        1.379713       -0.016477
C       -0.010020       -0.666542       -0.001671
H       -0.947845       -1.383925       -0.017965
H        1.098254       -1.228765        0.095835
6
  Step 68: 68.0 fs
C       -0.018400        0.681897        0.011842
H        1.047271        1.102989       -0.147099
H       -0.884533        1.344157       -0.032674
C       -0.008451       -0.669657       -0.003060
H       -0.918223       -1.361409       -0.024597
H        1.074713       -1.231319        0.099831
6
  Step 69: 69.0 fs
C       -0.025913        0.686025        0.017053
H        1.095977        1.097383       -0.177034
H       -0.863934        1.306641       -0.048530
C       -0.005919       -0.673799       -0.003917
H       -0.876714       -1.328200       -0.029464
H        1.023200       -1.221240        0.098639
6
  Step 70: 70.0 fs
C       -0.029565        0.688224        0.021206
H        1.116551        1.090663       -0.197716
H       -0.855726        1.278819       -0.064646
C       -0.002148       -0.677631       -0.004217
H       -0.836268       -1.293628       -0.032687
H        0.952550       -1.201828        0.092775
6
  Step 71: 71.0 fs
C       -0.028241        0.687662        0.024207
H        1.105797        1.082906       -0.207768
H       -0.869299        1.268444       -0.081912
C        0.002717       -0.679266       -0.003999
H       -0.814308       -1.269710       -0.034743
H        0.881208       -1.181448        0.083823
6
  Step 72: 72.0 fs
C       -0.022314        0.684445        0.025948
H        1.065267        1.075325       -0.206756
H       -0.901131        1.273248       -0.099971
C        0.007238       -0.676815       -0.003409
H       -0.823311       -1.264345       -0.036113
H        0.838180       -1.174916        0.074491
6
  Step 73: 73.0 fs
C       -0.013458        0.679398        0.026301
H        1.001990        1.070595       -0.195456
H       -0.937869        1.283897       -0.116812
C        0.009200       -0.669740       -0.002599
H       -0.859771       -1.274323       -0.036702
H        0.845830       -1.195011        0.066775
6
  Step 74: 74.0 fs
C       -0.004055        0.673357        0.025283
H        0.931181        1.074106       -0.176543
H       -0.966299        1.291244       -0.130025
C        0.008149       -0.659895       -0.001533
H       -0.908173       -1.289033       -0.035948
H        0.894017       -1.236452        0.059757
6
  Step 75: 75.0 fs
C        0.003108        0.666687        0.023162
H        0.877388        1.095211       -0.154816
H       -0.978406        1.289605       -0.137836
C        0.005252       -0.650254       -0.000110
H       -0.952751       -1.298471       -0.033372
H        0.953701       -1.281850        0.051570
6
  Step 76: 76.0 fs
C        0.005863        0.659498        0.020251
H        0.862586        1.143260       -0.134407
H       -0.971629        1.276665       -0.139369
C        0.001610       -0.643197        0.001679
H       -0.982985       -1.296528       -0.028857
H        1.002509       -1.317327        0.041542
6
  Step 77: 77.0 fs
C        0.004515        0.652646        0.016523
H        0.883549        1.215298       -0.114369
H       -0.948160        1.252970       -0.134638
C       -0.002082       -0.640167        0.003770
H       -0.993771       -1.280889       -0.022637
H        1.028874       -1.335794        0.030029
6
  Step 78: 78.0 fs
C        0.001377        0.647683        0.011827
H        0.917460        1.295188       -0.091279
H       -0.914806        1.222052       -0.124552
C       -0.005300       -0.641802        0.006077
H       -0.984596       -1.252363       -0.015157
H        1.028107       -1.334740        0.017824
6
  Step 79: 79.0 fs
C       -0.001100        0.645562        0.006252
H        0.944674        1.366592       -0.063790
H       -0.883192        1.190911       -0.110897
C       -0.007477       -0.647908        0.008516
H       -0.959658       -1.214783       -0.006966
H        0.999744       -1.314615        0.005829
6
  Step 80: 80.0 fs
C       -0.000957        0.646137        0.000103
H        0.954956        1.419134       -0.032709
H       -0.868251        1.168965       -0.095857
C       -0.007949       -0.657368        0.011008
H       -0.928904       -1.175309        0.001368
H        0.947672       -1.278893       -0.005079
6
  Step 81: 81.0 fs
C        0.002879        0.648768       -0.006294
H        0.944546        1.447556        0.000172
H       -0.880509        1.162810       -0.080764
C       -0.006200       -0.668142        0.013473
H       -0.907934       -1.143721        0.009376
H        0.882871       -1.235794       -0.014246
6
  Step 82: 82.0 fs
C        0.010018        0.653109       -0.012708
H        0.913745        1.450200        0.032781
H       -0.916725        1.170460       -0.065395
C       -0.002792       -0.677564        0.015854
H       -0.911621       -1.128350        0.016824
H        0.827985       -1.200946       -0.021649
6
  Step 83: 83.0 fs
C        0.018867        0.659064       -0.018939
H        0.866542        1.428932        0.063144
H       -0.962577        1.183608       -0.049105
C       -0.000080       -0.683181        0.018146
H       -0.942125       -1.130297        0.023658
H        0.813887       -1.194899       -0.028234
6
  Step 84: 84.0 fs
C        0.027389        0.666195       -0.024784
H        0.811993        1.390678        0.089937
H       -1.003150        1.194212       -0.031972
C       -0.000007       -0.684309        0.020336
H       -0.986881       -1.143686        0.029731
H        0.851411       -1.225338       -0.034718
6
  Step 85: 85.0 fs
C        0.033351        0.673270       -0.030131
H        0.766718        1.350031        0.113593
H       -1.028466        1.197535       -0.014782
C       -0.001867       -0.682453        0.022269
H       -1.029407       -1.161072        0.034706
H        0.915680       -1.276974       -0.039884
6
  Step 86: 86.0 fs
C        0.034539        0.678454       -0.035072
H        0.752542        1.327021        0.137106
H       -1.033742        1.191909        0.001396
C       -0.004191       -0.679450        0.023758
H       -1.057337       -1.176772        0.038193
H        0.976572       -1.330111       -0.041960
6
  Step 87: 87.0 fs
C        0.030053        0.680709       -0.039678
H        0.780217        1.331644        0.163044
H       -1.018455        1.177909        0.015523
C       -0.006112       -0.676487        0.024692
H       -1.063976       -1.187433        0.039891
H        1.016546       -1.372198       -0.040001
6
  Step 88: 88.0 fs
C        0.021391        0.680776       -0.043603
H        0.836442        1.352645        0.188552
H       -0.986455        1.158215        0.026833
C       -0.007199       -0.674230        0.025027
H       -1.047708       -1.191801        0.039647
H        1.028113       -1.396801       -0.033822
6
  Step 89: 89.0 fs
C        0.011303        0.679817       -0.046321
H        0.898509        1.372138        0.207831
H       -0.947033        1.138157        0.035138
C       -0.007117       -0.672975        0.024758
H       -1.011389       -1.190500        0.037485
H        1.009434       -1.401065       -0.023676
6
  Step 90: 90.0 fs
C        0.002514        0.678231       -0.047522
H        0.949580        1.378628        0.216690
H       -0.915113        1.125841        0.041087
C       -0.005442       -0.672638        0.023903
H       -0.962723       -1.186303        0.033585
H        0.962485       -1.384566       -0.010104
6
  Step 91: 91.0 fs
C       -0.002860        0.675819       -0.047148
H        0.980487        1.367382        0.213311
H       -0.905998        1.129524        0.045825
C       -0.001752       -0.672655        0.022502
H       -0.914354       -1.184302        0.028220
H        0.894139       -1.350079        0.006121
6
  Step 92: 92.0 fs
C       -0.004086        0.672540       -0.045224
H        0.987427        1.337764        0.197556
H       -0.923669        1.151603        0.049656
C        0.003842       -0.671881        0.020624
H       -0.881253       -1.190713        0.021608
H        0.819745       -1.306306        0.024112
6
  Step 93: 93.0 fs
C       -0.002059        0.668895       -0.041774
H        0.970767        1.291993        0.170543