6
  Step 0: 0.0 fs
C        0.000001        0.665092       -0.000003
H        0.925301        1.240827        0.000004
H       -0.925315        1.240819        0.000014
C        0.000000       -0.665094        0.000002
H       -0.925313       -1.240806       -0.000010
H        0.925308       -1.240813        0.000000
6
  Step 1: 1.0 fs
C       -0.011319        0.671310        0.001628
H        0.987060        1.235586        0.002343
H       -0.900153        1.185148       -0.027114
C        0.006059       -0.673755        0.003579
H       -0.903135       -1.170780       -0.003885
H        0.878861       -1.220846       -0.033341
6
  Step 2: 2.0 fs
C       -0.019401        0.676208        0.003254
H        1.033059        1.225027        0.004489
H       -0.895095        1.144417       -0.053773
C        0.011726       -0.679749        0.007090
H       -0.898444       -1.113838       -0.007819
H        0.851872       -1.213453       -0.066069
6
  Step 3: 3.0 fs
C       -0.022063        0.678758        0.004959
H        1.054323        1.207990        0.006210
H       -0.924364        1.128375       -0.080433
C        0.016614       -0.681284        0.010582
H       -0.923157       -1.078245       -0.012097
H        0.858094       -1.228058       -0.098718
6
  Step 4: 4.0 fs
C       -0.019576        0.679115        0.006726
H        1.047835        1.185926        0.007299
H       -0.979213        1.133375       -0.106446
C        0.020527       -0.678646        0.013992
H       -0.971490       -1.063120       -0.016810
H        0.891555       -1.261781       -0.130729
6
  Step 5: 5.0 fs
C       -0.013878        0.678093        0.008373
H        1.015886        1.162138        0.007606
H       -1.036803        1.148633       -0.129284
C        0.023392       -0.673546        0.017035
H       -1.025323       -1.062462       -0.021618
H        0.932990       -1.302473       -0.159238
6
  Step 6: 6.0 fs
C       -0.007139        0.676282        0.009693
H        0.966799        1.142032        0.007050
H       -1.078196        1.165200       -0.146260
C        0.025084       -0.667760        0.019373
H       -1.067598       -1.070399       -0.025981
H        0.965356       -1.338336       -0.180895
6
  Step 7: 7.0 fs
C       -0.001472        0.673751        0.010545
H        0.916211        1.133798        0.005580
H       -1.093137        1.177861       -0.155589
C        0.025474       -0.662594        0.020760
H       -1.087774       -1.082772       -0.029403
H        0.978951       -1.361768       -0.193325
6
  Step 8: 8.0 fs
C        0.001153        0.670201        0.010864
H        0.883923        1.147109        0.003127
H       -1.078150        1.184058       -0.156428
C        0.024512       -0.658888        0.021067
H       -1.081410       -1.096876       -0.031553
H        0.970090       -1.369025       -0.195343
6
  Step 9: 9.0 fs
C       -0.000112        0.665561        0.010644
H        0.880725        1.186579       -0.000308
H       -1.035079        1.183151       -0.148728
C        0.022274       -0.657097        0.020269
H       -1.048933       -1.111154       -0.032264
H        0.939452       -1.359398       -0.186773
6
  Step 10: 10.0 fs
C       -0.004084        0.660524        0.009930
H        0.898130        1.245021       -0.004461
H       -0.971457        1.176737       -0.133334
C        0.018954       -0.657257        0.018443
H       -0.995700       -1.125432       -0.031567
H        0.892019       -1.335269       -0.168467
6
  Step 11: 11.0 fs
C       -0.008246        0.655976        0.008843
H        0.918937        1.308073       -0.008829
H       -0.902526        1.170287       -0.112263
C        0.014810       -0.658778        0.015800
H       -0.933196       -1.141770       -0.029733
H        0.838681       -1.303277       -0.142588
6
  Step 12: 12.0 fs
C       -0.009814        0.652148        0.007585
H        0.930366        1.362707       -0.012902
H       -0.851278        1.174319       -0.088552
C        0.010017       -0.660260        0.012684
H       -0.878966       -1.165189       -0.027290
H        0.797522       -1.275302       -0.112591
6
  Step 13: 13.0 fs
C       -0.006841        0.648841        0.006306
H        0.926748        1.400383       -0.016302
H       -0.837833        1.199262       -0.064538
C        0.004579       -0.660020        0.009425
H       -0.850738       -1.201882       -0.024718
H        0.788809       -1.264714       -0.081751
6
  Step 14: 14.0 fs
C        0.000403        0.646634        0.004956
H        0.907538        1.416630       -0.018770
H       -0.860873        1.243106       -0.040089
C       -0.001391       -0.657723        0.006107
H       -0.854059       -1.252835       -0.022018
H        0.819222       -1.274933       -0.050836
6
  Step 15: 15.0 fs
C        0.009866        0.646920        0.003436
H        0.875717        1.410482       -0.020169
H       -0.901098        1.291668       -0.014423
C       -0.007422       -0.655079        0.002645
H       -0.878413       -1.309908       -0.018809
H        0.874764       -1.295157       -0.018998
6
  Step 16: 16.0 fs
C        0.019313        0.650608        0.001766
H        0.837747        1.385066       -0.020523
H       -0.939959        1.331144        0.012028
C       -0.012979       -0.654265       -0.000943
H       -0.907884       -1.361222       -0.014830
H        0.934757       -1.311516        0.013530
6
  Step 17: 17.0 fs
C        0.026766        0.657359        0.000058
H        0.804932        1.349121       -0.020058
H       -0.966395        1.353608        0.037967
C       -0.017692       -0.656527       -0.004513
H       -0.930295       -1.397438       -0.010116
H        0.983791       -1.315276        0.045261
6
  Step 18: 18.0 fs
C        0.030327        0.665671       -0.001547
H        0.793542        1.316893       -0.019168
H       -0.975085        1.356072        0.061921
C       -0.021310       -0.662018       -0.007875
H       -0.938932       -1.413493       -0.004893
H        1.013197       -1.303052        0.074325
6
  Step 19: 19.0 fs
C        0.028608        0.673792       -0.002922
H        0.817416        1.300721       -0.018151
H       -0.964317        1.338803        0.082534
C       -0.023620       -0.670143       -0.010843
H       -0.931603       -1.408129        0.000540
H        1.019200       -1.274937        0.098981
6
  Step 20: 20.0 fs
C        0.021885        0.680919       -0.003998
H        0.874094        1.299313       -0.016910
H       -0.935766        1.304888        0.098754
C       -0.024410       -0.679839       -0.013271
H       -0.910153       -1.383627        0.005903
H        1.001980       -1.233530        0.117880
6
  Step 21: 21.0 fs
C        0.012227        0.686952       -0.004780
H        0.945159        1.300521       -0.015124
H       -0.896175        1.261135        0.110188
C       -0.023486       -0.689604       -0.015075
H       -0.881130       -1.346236        0.011027
H        0.966307       -1.183946        0.130328
6
  Step 22: 22.0 fs
C        0.002525        0.691359       -0.005373
H        1.010600        1.293681       -0.012573
H       -0.860164        1.219554        0.117759
C       -0.020792       -0.697451       -0.016295
H       -0.856416       -1.306384        0.015990
H        0.923587       -1.134425        0.136820
6
  Step 23: 23.0 fs
C       -0.004285        0.692986       -0.005998
H        1.056681        1.273957       -0.009189
H       -0.848622        1.195634        0.123915
C       -0.016754       -0.701163       -0.017137
H       -0.850565       -1.276157        0.021173
H        0.893126       -1.096178        0.139566
6
  Step 24: 24.0 fs
C       -0.006508        0.691073       -0.006814
H        1.076221        1.240961       -0.005034
H       -0.873623        1.198425        0.130525
C       -0.012487       -0.699253       -0.017879
H       -0.871386       -1.262393        0.026915
H        0.895079       -1.079698        0.141610
6
  Step 25: 25.0 fs
C       -0.004813        0.686160       -0.007687
H        1.067256        1.197024       -0.000276
H       -0.923743        1.222013        0.136121
C       -0.008962       -0.692013       -0.018558
H       -0.912047       -1.262035        0.032999
H        0.932669       -1.087420        0.143654
6
  Step 26: 26.0 fs
C       -0.001198        0.679482       -0.008332
H        1.032908        1.146723        0.004846
H       -0.976140        1.253028        0.137558
C       -0.006161       -0.681235       -0.018890
H       -0.956938       -1.266685        0.038676
H        0.987920       -1.112319        0.143054
6
  Step 27: 27.0 fs
C        0.002270        0.672045       -0.008546
H        0.982937        1.097398        0.010126
H       -1.013228        1.280516        0.132753
C       -0.003662       -0.669077       -0.018568
H       -0.991795       -1.268825        0.043115
H        1.038777       -1.144555        0.136864
6
  Step 28: 28.0 fs
C        0.003535        0.664347       -0.008265
H        0.935780        1.059673        0.015576
H       -1.025859        1.298034        0.121101
C       -0.001226       -0.657428       -0.017438
H       -1.007772       -1.264020        0.045674
H        1.070488       -1.176199        0.123697
6
  Step 29: 29.0 fs
C        0.000666        0.656608       -0.007530
H        0.914399        1.045111        0.021513
H       -1.011067        1.302521        0.102996
C        0.001201       -0.647798       -0.015491
H       -1.001364       -1.250742        0.046006
H        1.075938       -1.201928        0.103594
6
  Step 30: 30.0 fs
C       -0.006813        0.649390       -0.006419
H        0.928840        1.058534        0.028062
H       -0.970840        1.293608        0.079486
C        0.003666       -0.641311       -0.012818
H       -0.973685       -1.229937        0.044033
H        1.053301       -1.218538        0.077474
6
  Step 31: 31.0 fs
C       -0.016999        0.643822       -0.004995
H        0.965491        1.093231        0.034555
H       -0.912708        1.274235        0.052166
C        0.006330       -0.638571       -0.009578
H       -0.930795       -1.205204        0.039978
H        1.005187       -1.224926        0.046826
6
  Step 32: 32.0 fs
C       -0.026717        0.640681       -0.003324
H        1.002576        1.137369        0.039912
H       -0.851982        1.252825        0.023031
C        0.009476       -0.639366       -0.005984
H       -0.884580       -1.183196        0.034349
H        0.939423       -1.222807        0.013545
6
  Step 33: 33.0 fs
C       -0.032740        0.639615       -0.001473
H        1.024877        1.181036        0.043305
H       -0.811641        1.244245       -0.006203
C        0.013208       -0.642475       -0.002263
H       -0.851817       -1.172929        0.027800
H        0.871306       -1.218453       -0.020407
6
  Step 34: 34.0 fs
C       -0.032889        0.639803        0.000567
H        1.025330        1.217816        0.044293
H       -0.810437        1.261484       -0.035086
C        0.016825       -0.646067        0.001447
H       -0.846755       -1.181336        0.020734
H        0.823293       -1.223544       -0.053912
6
  Step 35: 35.0 fs
C       -0.027399        0.641528        0.002817
H        1.002579        1.244120        0.042742
H       -0.844274        1.300209       -0.063514
C        0.018842       -0.648964        0.005156
H       -0.870150       -1.206971        0.013120
H        0.813893       -1.248990       -0.087271
6
  Step 36: 36.0 fs
C       -0.018272        0.645961        0.005149
H        0.959472        1.258795        0.038785
H       -0.892510        1.342799       -0.089874
C        0.018453       -0.651733        0.008827
H       -0.909427       -1.240613        0.004908
H        0.840478       -1.292418       -0.120222
6
  Step 37: 37.0 fs
C       -0.007723        0.653672        0.007350
H        0.903427        1.263811        0.032827
H       -0.936902        1.374081       -0.111836
C        0.016049       -0.655907        0.012198
H       -0.949208       -1.271905       -0.003640
H        0.883729       -1.339555       -0.150096
6
  Step 38: 38.0 fs
C        0.002149        0.663999        0.009222
H        0.848003        1.265836        0.025515
H       -0.967041        1.386056       -0.127552
C        0.012320       -0.662461        0.014932
H       -0.978180       -1.293516       -0.012045
H        0.925119       -1.376855       -0.173500
6
  Step 39: 39.0 fs
C        0.009248        0.675226        0.010620
H        0.812118        1.276345        0.017524
H       -0.978382        1.376062       -0.135911
C        0.007827       -0.671393        0.016775
H       -0.990122       -1.301622       -0.019785
H        0.953251       -1.396610       -0.188000
6
  Step 40: 40.0 fs
C        0.012116        0.685484        0.011475
H        0.810456        1.305009        0.009211
H       -0.970210        1.344786       -0.136446
C        0.003061       -0.682006        0.017587
H       -0.983401       -1.295442       -0.026429
H        0.962621       -1.395947       -0.192358
6
  Step 41: 41.0 fs
C        0.011071        0.693841        0.011795
H        0.839971        1.348905        0.000675
H       -0.945498        1.295831       -0.129379
C       -0.001444       -0.693225        0.017327
H       -0.960715       -1.276976       -0.031717
H        0.951808       -1.375286       -0.186308
6
  Step 42: 42.0 fs
C        0.008043        0.700138        0.011647
H        0.883605        1.394624       -0.007795
H       -0.912477        1.236563       -0.115855
C       -0.005049       -0.703670        0.016062
H       -0.929876       -1.251314       -0.035706
H        0.923301       -1.338004       -0.170559
6
  Step 43: 43.0 fs
C        0.005595        0.703972        0.011185
H        0.924297        1.429426       -0.015726
H       -0.886900        1.179028       -0.098205
C       -0.007123       -0.711623        0.013990
H       -0.903867       -1.226460       -0.038817
H        0.884864       -1.291100       -0.146994
6
  Step 44: 44.0 fs
C        0.006168        0.704576        0.010597
H        0.950832        1.445884       -0.022661
H       -0.888839        1.136923       -0.079220
C       -0.007542       -0.715143        0.011439
H       -0.897100       -1.210977       -0.041658
H        0.851668       -1.246211       -0.118834
6
  Step 45: 45.0 fs
C        0.010752        0.701672        0.009936
H        0.957587        1.441160       -0.028225
H       -0.926552        1.116402       -0.060000
C       -0.007286       -0.712715        0.008743
H       -0.915877       -1.208779       -0.044502
H        0.843790       -1.217514       -0.089669
6
  Step 46: 46.0 fs
C        0.018067        0.695919        0.009090
H        0.943480        1.415744       -0.032132
H       -0.985556        1.112253       -0.039693
C       -0.007731       -0.704235        0.006006
H       -0.952488       -1.216402       -0.046898
H        0.871711       -1.212787       -0.061011
6
  Step 47: 47.0 fs
C        0.025794        0.688233        0.007982
H        0.912004        1.373415       -0.034244
H       -1.042981        1.115802       -0.017751
C       -0.009038       -0.691273        0.003114
H       -0.991999       -1.226745       -0.048075
H        0.923688       -1.226502       -0.032033
6
  Step 48: 48.0 fs
C        0.031714        0.679172        0.006648
H        0.872540        1.322383       -0.034689
H       -1.082190        1.120913        0.005252
C       -0.010431       -0.676088        0.000002
H       -1.021205       -1.233488       -0.047413
H        0.977667       -1.246749       -0.002313
6
  Step 49: 49.0 fs
C        0.033814        0.668833        0.005208
H        0.841219        1.275983       -0.033965
H       -1.094757        1.124366        0.028155
C       -0.011217       -0.660776       -0.003257
H       -1.032000       -1.232704       -0.044616
H        1.016710       -1.263809        0.027205
6
  Step 50: 50.0 fs
C        0.030505        0.657305        0.003810
H        0.835793        1.248402       -0.032693
H       -1.078164        1.124820        0.049672
C       -0.011020       -0.647109       -0.006513
H       -1.021347       -1.222921       -0.039704
H        1.031953       -1.271931        0.054919
6
  Step 51: 51.0 fs
C        0.021708        0.645604        0.002551
H        0.861297        1.243659       -0.030911
H       -1.034708        1.122453        0.068624
C       -0.009614       -0.636612       -0.009600
H       -0.990782       -1.205032       -0.032926
H        1.020429       -1.268380        0.079153
6
  Step 52: 52.0 fs
C        0.009330        0.635781        0.001449
H        0.904644        1.252204       -0.027968
H       -0.972157        1.119477        0.084198
C       -0.006732       -0.630445       -0.012366
H       -0.946759       -1.182619       -0.024695
H        0.983586       -1.252835        0.098471
6
  Step 53: 53.0 fs
C       -0.003680        0.629583        0.000461
H        0.947778        1.261304       -0.023295
H       -0.905932        1.121780        0.096407
C       -0.002045       -0.629017       -0.014703
H       -0.901123       -1.162287       -0.015465
H        0.927695       -1.227786        0.111949
6
  Step 54: 54.0 fs
C       -0.014227        0.627435       -0.000531
H        0.978058        1.262553       -0.016776
H       -0.858544        1.139715        0.106568
C        0.004492       -0.631603       -0.016601
H       -0.869570       -1.152772       -0.005570
H        0.866215       -1.200127        0.119787
6
  Step 55: 55.0 fs
C       -0.020142        0.628807       -0.001660
H        0.989399        1.252345       -0.008654
H       -0.847602        1.182340        0.116398
C        0.011826       -0.636502       -0.018221
H       -0.864244       -1.160566        0.004846
H        0.821713       -1.182764        0.124140
6
  Step 56: 56.0 fs
C       -0.021468        0.633488       -0.002861
H        0.980778        1.230588        0.000618
H       -0.868932        1.245760        0.125391
C        0.017661       -0.642042       -0.019815
H       -0.884372       -1.184579        0.015542
H        0.818123       -1.190185        0.128456
6
  Step 57: 57.0 fs
C       -0.019879        0.641716       -0.003884
H        0.955458        1.200072        0.010492
H       -0.903074        1.314728        0.130939
C        0.020460       -0.647931       -0.021374
H       -0.917628       -1.217237        0.025865
H        0.858592       -1.223821        0.133459
6
  Step 58: 58.0 fs
C       -0.017311        0.653197       -0.004509
H        0.921819        1.166812        0.020485
H       -0.932760        1.374740        0.130830
C        0.020598       -0.655114       -0.022540
H       -0.949628       -1.250051        0.034900
H        0.921706       -1.268944        0.135872
6
  Step 59: 59.0 fs
C       -0.015615        0.666723       -0.004645
H        0.894178        1.139999        0.030403
H       -0.948129        1.416925        0.124152
C        0.019020       -0.664266       -0.022965
H       -0.969870       -1.276914        0.041806
H        0.983549       -1.309537        0.132396
6
  Step 60: 60.0 fs
C       -0.016398        0.680577       -0.004315
H        0.888971        1.129166        0.040473
H       -0.945063        1.437305        0.111005
C        0.016414       -0.675225       -0.022486
H       -0.972765       -1.294566        0.045972
H        1.028947       -1.335917        0.121687
6
  Step 61: 61.0 fs
C       -0.020169        0.693336       -0.003593
H        0.912874        1.137700        0.050848
H       -0.923567        1.435457        0.092132
C        0.013269       -0.687230       -0.021096
H       -0.957237       -1.302337        0.047104
H        1.050377       -1.343811        0.103891
6
  Step 62: 62.0 fs
C       -0.025720        0.704199       -0.002525
H        0.955599        1.160029        0.060884
H       -0.887871        1.414523        0.068791
C        0.010087       -0.699205       -0.018881
H       -0.926506       -1.302018        0.045244
H        1.045213       -1.332288        0.079978
6
  Step 63: 63.0 fs
C       -0.030816        0.712457       -0.001155
H        0.999539        1.187129        0.069397
H       -0.847795        1.382461        0.042686
C        0.007482       -0.709836       -0.016002
H       -0.888520       -1.298110        0.040801
H        1.014902       -1.302982        0.051423
6
  Step 64: 64.0 fs
C       -0.033032        0.717004        0.000460
H        1.030624        1.211764        0.075373
H       -0.819489        1.352704        0.015553
C        0.006024       -0.717574       -0.012676
H       -0.855348       -1.297513        0.034449
H        0.966094       -1.260462        0.020096
6
  Step 65: 65.0 fs
C       -0.030477        0.716699        0.002298
H        1.041030        1.229555        0.078240
H       -0.819509        1.339105       -0.011698
C        0.005645       -0.720748       -0.009128
H       -0.839143       -1.307108        0.026783
H        0.913585       -1.213639       -0.011988
6
  Step 66: 66.0 fs
C       -0.022940        0.711443        0.004381
H        1.028381        1.238452        0.077790
H       -0.850320        1.344075       -0.038960
C        0.004924       -0.717997       -0.005492
H       -0.844471       -1.328846        0.017973
H        0.881230       -1.175958       -0.043555
6
  Step 67: 67.0 fs
C       -0.012098        0.702408        0.006645
H        0.994913        1.238380        0.074138
H       -0.896991        1.356570       -0.065385
C        0.001829       -0.709036       -0.001758
H       -0.865031       -1.357467        0.007909
H        0.889701       -1.158878       -0.074830
6
  Step 68: 68.0 fs
C       -0.000342        0.691023        0.008919
H        0.947825        1.231729        0.067750
H       -0.941289        1.363673       -0.089070
C       -0.003971       -0.695264        0.002029
H       -0.889435       -1.384128       -0.003333
H        0.934572       -1.161098       -0.105672
6
  Step 69: 69.0 fs
C        0.009993        0.678319        0.010989
H        0.899799        1.224176        0.059459
H       -0.970995        1.357450       -0.108031
C       -0.011023       -0.679104        0.005602
H       -0.907858       -1.400895       -0.015349
H        0.991647       -1.171715       -0.133614
6
  Step 70: 70.0 fs
C        0.016876        0.664944        0.012675
H        0.866865        1.224190        0.050244
H       -0.980422        1.334850       -0.120812
C       -0.017805       -0.662912        0.008626
H       -0.914319       -1.402569       -0.027534
H        1.039270       -1.180990       -0.155496
6
  Step 71: 71.0 fs
C        0.019155        0.651677        0.013871
H        0.859955        1.238065        0.040685
H       -0.968655        1.296178       -0.126592
C       -0.023309       -0.648641        0.010840
H       -0.906864       -1.387161       -0.039261
H        1.065356       -1.183569       -0.169040
6
  Step 72: 72.0 fs
C        0.017213        0.639961        0.014576
H        0.876285        1.263367        0.030777
H       -0.938934        1.244588       -0.125220
C       -0.026842       -0.637860        0.012090
H       -0.887329       -1.355938       -0.050019
H        1.064958       -1.177375       -0.173023
6
  Step 73: 73.0 fs
C        0.012704        0.631517        0.014862
H        0.903234        1.290595        0.020454
H       -0.899662        1.186804       -0.117444
C       -0.027756       -0.631631        0.012322
H       -0.861738       -1.313868       -0.059591
H        1.037724       -1.162510       -0.167071
6
  Step 74: 74.0 fs
C        0.007885        0.627342        0.014882
H        0.928046        1.310256        0.009957
H       -0.866350        1.134229       -0.105231
C       -0.025371       -0.630192        0.011593
H       -0.840633       -1.269745       -0.068272
H        0.987484       -1.141150       -0.151661
6
  Step 75: 75.0 fs
C        0.005101        0.627306        0.014842
H        0.942305        1.316674       -0.000247
H       -0.859658        1.100987       -0.091425
C       -0.019332       -0.632798        0.010096
H       -0.837004       -1.234060       -0.076813
H        0.924155       -1.118563       -0.128431
6
  Step 76: 76.0 fs
C        0.005621        0.630858        0.014841
H        0.942124        1.308210       -0.009605
H       -0.891181        1.094775       -0.077641
C       -0.010579       -0.638011        0.008135
H       -0.858934       -1.213050       -0.085716
H        0.867373       -1.105126       -0.100585
6
  Step 77: 77.0 fs
C        0.008570        0.637762        0.014762
H        0.927859        1.286812       -0.017565
H       -0.949737        1.109912       -0.063062
C       -0.001877       -0.644234        0.005983
H       -0.902061       -1.204235       -0.094358
H        0.844607       -1.115793       -0.071998
6
  Step 78: 78.0 fs
C        0.011822        0.647635        0.014447
H        0.904530        1.258094       -0.023692
H       -1.012463        1.134668       -0.046480
C        0.004232       -0.650477        0.003666
H       -0.952811       -1.200361       -0.101268
H        0.869958       -1.158925       -0.044203
6
  Step 79: 79.0 fs
C        0.013288        0.659407        0.013846
H        0.882178        1.231171       -0.027876
H       -1.060977        1.159888       -0.027819
C        0.007789       -0.657026        0.001009
H       -0.997312       -1.195339       -0.105076
H        0.925522       -1.224441       -0.016087
6
  Step 80: 80.0 fs
C        0.011345        0.671508        0.013008
H        0.873613        1.216476       -0.030360
H       -1.085062        1.180444       -0.007845
C        0.010081       -0.664529       -0.002038
H       -1.026011       -1.186142       -0.104981
H        0.982726       -1.294246        0.012589
6
  Step 81: 81.0 fs
C        0.005315        0.682557        0.012011
H        0.886448        1.220043       -0.031344
H       -1.080830        1.194003        0.012370
C        0.012024       -0.673097       -0.005363
H       -1.034209       -1.172362       -0.100768
H        1.022511       -1.354700        0.040604
6
  Step 82: 82.0 fs
C       -0.004032        0.691878        0.010899
H        0.915657        1.239100       -0.030526
H       -1.049452        1.200256        0.031720
C        0.014104       -0.682307       -0.008780
H       -1.021686       -1.155591       -0.092718
H        1.035931       -1.398119        0.066314
6
  Step 83: 83.0 fs
C       -0.014794        0.699232        0.009690
H        0.947762        1.265292       -0.027368
H       -0.997596        1.201168        0.049254
C        0.016703       -0.691422       -0.012087
H       -0.992722       -1.139084       -0.081504
H        1.020214       -1.420754        0.088181
6
  Step 84: 84.0 fs
C       -0.024546        0.704224        0.008382
H        0.970055        1.290407       -0.021578
H       -0.939288        1.202191        0.064518
C        0.020284       -0.699517       -0.015082
H       -0.956276       -1.127520       -0.068106
H        0.976646       -1.421513        0.104968
6
  Step 85: 85.0 fs
C       -0.030745        0.706065        0.006934
H        0.974921        1.308871       -0.013272
H       -0.895358        1.212662        0.077944
C        0.025259       -0.705499       -0.017605
H       -0.924972       -1.126295       -0.053561
H        0.911128       -1.402375        0.115977
6
  Step 86: 86.0 fs
C       -0.031623        0.704000        0.005287
H        0.960052        1.317781       -0.002888
H       -0.883136        1.240822        0.090493
C        0.031355       -0.708136       -0.019615
H       -0.910066       -1.139225       -0.038640
H        0.836746       -1.370537        0.121666
6
  Step 87: 87.0 fs
C       -0.027464        0.698198        0.003500
H        0.927821        1.316605        0.008954
H       -0.900800        1.284028        0.101926
C        0.036781       -0.706072       -0.021288
H       -0.914370       -1.165628       -0.023729
H        0.776825       -1.341664        0.124667
6
  Step 88: 88.0 fs
C       -0.020283        0.689707        0.001780
H        0.885128        1.307467        0.021610
H       -0.931243        1.329417        0.110336
C        0.038663       -0.698191       -0.022952
H       -0.930974       -1.199964       -0.009193
H        0.758659       -1.336319        0.129365
6
  Step 89: 89.0 fs
C       -0.012461        0.679624        0.000328
H        0.843058        1.295561        0.034616
H       -0.958102        1.364100        0.113758
C        0.035630       -0.685151       -0.024661
H       -0.949228       -1.234785        0.004356
H        0.788829       -1.359473        0.137024
6
  Step 90: 90.0 fs
C       -0.006049        0.668766       -0.000745
H        0.814967        1.288477        0.047869
H       -0.971918        1.380096        0.111123
C        0.028847       -0.669817       -0.026013
H       -0.960343       -1.263590        0.016157
H        0.846254       -1.392896        0.143481
6
  Step 91: 91.0 fs
C       -0.002313        0.658003       -0.001412
H        0.810360        1.291973        0.061487
H       -0.969022        1.374034        0.102222
C        0.020066       -0.655320       -0.026595
H       -0.959026       -1.281902        0.025468
H        0.906726       -1.416471        0.144326
6
  Step 92: 92.0 fs
C       -0.001352        0.648667       -0.001652
H        0.828591        1.304740        0.075190
H       -0.949572        1.345911        0.087440
C        0.010577       -0.643990       -0.026220
H       -0.943682       -1.287619        0.031720
H        0.955254       -1.419141        0.137541
6
  Step 93: 93.0 fs
C       -0.002257        0.642314       -0.001426
H        0.860400        1.319102        0.087987