6
  Step 0: 0.0 fs
C       -0.000001        0.665092        0.000000
H        0.925306        1.240811       -0.000005
H       -0.925300        1.240824        0.000006
C        0.000001       -0.665092       -0.000001
H       -0.925301       -1.240821       -0.000002
H        0.925300       -1.240816        0.000009
6
  Step 1: 1.0 fs
C       -0.002685        0.654052       -0.001659
H        0.945450        1.295738       -0.016532
H       -0.870891        1.185121        0.012542
C       -0.003161       -0.654474        0.006938
H       -0.984064       -1.237951       -0.043966
H        0.979121       -1.237873       -0.014892
6
  Step 2: 2.0 fs
C       -0.002449        0.643684       -0.003293
H        0.953871        1.340186       -0.032282
H       -0.842295        1.145754        0.024864
C       -0.006054       -0.646017        0.013558
H       -1.028622       -1.228886       -0.085704
H        1.018310       -1.229255       -0.029100
6
  Step 3: 3.0 fs
C        0.002544        0.634659       -0.004935
H        0.945338        1.367844       -0.046433
H       -0.858668        1.134713        0.037311
C       -0.008466       -0.641261        0.019516
H       -1.050986       -1.210980       -0.122669
H        1.034849       -1.212946       -0.041817
6
  Step 4: 4.0 fs
C        0.011425        0.628603       -0.006564
H        0.919362        1.376015       -0.058292
H       -0.911035        1.146808        0.049523
C       -0.010273       -0.641084        0.024520
H       -1.048255       -1.184368       -0.152643
H        1.026238       -1.189805       -0.052379
6
  Step 5: 5.0 fs
C        0.021656        0.627207       -0.008050
H        0.879350        1.365473       -0.067377
H       -0.973619        1.167275        0.059999
C       -0.011459       -0.645532        0.028366
H       -1.021877       -1.151482       -0.174112
H        0.994774       -1.163038       -0.060409
6
  Step 6: 6.0 fs
C        0.030796        0.630849       -0.009228
H        0.833328        1.341628       -0.073588
H       -1.025784        1.184824        0.067268
C       -0.012105       -0.653595        0.030986
H       -0.978401       -1.117169       -0.186719
H        0.948356       -1.138402       -0.066027
6
  Step 7: 7.0 fs
C        0.036732        0.638330       -0.009923
H        0.795236        1.316059       -0.077467
H       -1.056404        1.193861        0.070451
C       -0.012307       -0.663223        0.032527
H       -0.931169       -1.089036       -0.191976
H        0.901570       -1.124431       -0.070148
6
  Step 8: 8.0 fs
C        0.037602        0.647497       -0.009953
H        0.782663        1.304431       -0.080179
H       -1.060777        1.192453        0.069190
C       -0.012015       -0.671789        0.033378
H       -0.899789       -1.076667       -0.193506
H        0.873305       -1.130898       -0.074417
6
  Step 9: 9.0 fs
C        0.032616        0.656623       -0.009227
H        0.805054        1.315315       -0.082483
H       -1.038477        1.180923        0.063553
C       -0.010885       -0.677268        0.033903
H       -0.900671       -1.087192       -0.194882
H        0.875412       -1.163157       -0.079997
6
  Step 10: 10.0 fs
C        0.022959        0.665370       -0.007851
H        0.853212        1.341013       -0.083595
H       -0.993567        1.161788        0.054049
C       -0.008589       -0.679422        0.033993
H       -0.932254       -1.119044       -0.195684
H        0.901574       -1.216355       -0.086035
6
  Step 11: 11.0 fs
C        0.011254        0.673903       -0.006061
H        0.908143        1.366491       -0.082018
H       -0.937088        1.140941        0.041709
C       -0.005239       -0.679467        0.033151
H       -0.976840       -1.162772       -0.191945
H        0.934249       -1.278303       -0.090299
6
  Step 12: 12.0 fs
C        0.000726        0.681725       -0.004105
H        0.953939        1.380619       -0.076793
H       -0.890148        1.129202        0.028019
C       -0.001213       -0.678802        0.030966
H       -1.015852       -1.207801       -0.180177
H        0.957949       -1.336718       -0.090867
6
  Step 13: 13.0 fs
C       -0.005535        0.687709       -0.002163
H        0.981175        1.378145       -0.067703
H       -0.878496        1.139726        0.014244
C        0.003095       -0.678367        0.027302
H       -1.037415       -1.246264       -0.159092
H        0.963885       -1.382724       -0.086766
6
  Step 14: 14.0 fs
C       -0.006439        0.691258       -0.000281
H        0.985919        1.358017       -0.055044
H       -0.909352        1.176216        0.000520
C        0.007322       -0.678636        0.022247
H       -1.036095       -1.273311       -0.129175
H        0.949120       -1.411082       -0.077837
6
  Step 15: 15.0 fs
C       -0.003598        0.692914        0.001545
H        0.968739        1.322189       -0.039454
H       -0.962159        1.227225       -0.013311
C        0.011110       -0.679741        0.016029
H       -1.011055       -1.286433       -0.091966
H        0.915144       -1.419695       -0.064517
6
  Step 16: 16.0 fs
C        0.000562        0.693339        0.003284
H        0.935115        1.275799       -0.021840
H       -1.011515        1.277738       -0.026711
C        0.014097       -0.681437        0.008973
H       -0.965675       -1.285385       -0.049669
H        0.867649       -1.409729       -0.047717
6
  Step 17: 17.0 fs
C        0.003848        0.692512        0.004885
H        0.897227        1.228149       -0.003286
H       -1.041541        1.317459       -0.038774
C        0.015906       -0.682934        0.001467
H       -0.908298       -1.272759       -0.004860
H        0.817523       -1.386740       -0.028712
6
  Step 18: 18.0 fs
C        0.004229        0.689793        0.006282
H        0.873854        1.192063        0.015306
H       -1.045100        1.340940       -0.048640
C        0.016257       -0.682778       -0.006106
H       -0.853539       -1.255144        0.040068
H        0.781004       -1.361225       -0.008823
6
  Step 19: 19.0 fs
C        0.000339        0.684661        0.007369
H        0.880974        1.177657        0.033578
H       -1.020587        1.345939       -0.055620
C        0.015214       -0.679271       -0.013510
H       -0.820203       -1.242633        0.083940
H        0.774772       -1.344968        0.011227
6
  Step 20: 20.0 fs
C       -0.007319        0.677587        0.008056
H        0.916381        1.183590        0.051228
H       -0.970869        1.332852       -0.059265
C        0.013323       -0.671845       -0.020661
H       -0.821120       -1.243152        0.126838
H        0.804269       -1.341472        0.031289
6
  Step 21: 21.0 fs
C       -0.016519        0.669788        0.008357
H        0.962263        1.199355        0.067233
H       -0.904333        1.305715       -0.059547
C        0.011115       -0.662016       -0.027342
H       -0.851910       -1.255053        0.167690
H        0.858481       -1.342366        0.050680
6
  Step 22: 22.0 fs
C       -0.024415        0.662130        0.008389
H        1.001024        1.214510        0.080252
H       -0.837603        1.274828       -0.057192
C        0.008725       -0.652342       -0.033074
H       -0.896038       -1.269527        0.202967
H        0.919597       -1.336156        0.067898
6
  Step 23: 23.0 fs
C       -0.028108        0.654567        0.008346
H        1.022169        1.222540        0.089245
H       -0.795575        1.257862       -0.053819
C        0.006126       -0.645024       -0.037359
H       -0.937431       -1.278284        0.228633
H        0.972751       -1.315544        0.081407
6
  Step 24: 24.0 fs
C       -0.025747        0.646951        0.008377
H        1.021507        1.220439        0.093642
H       -0.797279        1.269592       -0.050819
C        0.003326       -0.641474       -0.039857
H       -0.965646       -1.276714        0.241878
H        1.008556       -1.278314        0.090128
6
  Step 25: 25.0 fs
C       -0.018069        0.640516        0.008452
H        0.999424        1.207752        0.093277
H       -0.835542        1.304541       -0.047628
C        0.000365       -0.642393       -0.040417
H       -0.975485       -1.263573        0.241421
H        1.022583       -1.226147        0.093549
6
  Step 26: 26.0 fs
C       -0.007544        0.637140        0.008425
H        0.960663        1.186627        0.088415
H       -0.886853        1.343775       -0.042766
C       -0.002756       -0.647740       -0.039060
H       -0.965852       -1.240217        0.227361
H        1.014874       -1.163739        0.091761
6
  Step 27: 27.0 fs
C        0.003208        0.637625        0.008160
H        0.915858        1.162906        0.079910
H       -0.931896        1.372147       -0.035483
C       -0.006098       -0.656571       -0.035977
H       -0.939952       -1.210689        0.201223
H        0.990610       -1.098544        0.085564
6
  Step 28: 28.0 fs
C        0.011664        0.641318        0.007528
H        0.882567        1.146764        0.069245
H       -0.959909        1.382207       -0.025823
C       -0.009733       -0.666996       -0.031565
H       -0.906908       -1.182434        0.166229
H        0.961469       -1.040546        0.076560
6
  Step 29: 29.0 fs
C        0.015663        0.646797        0.006450
H        0.879356        1.149066        0.057935
H       -0.966073        1.371769       -0.014278
C       -0.013543       -0.676517       -0.026387
H       -0.882629       -1.166313        0.126925
H        0.944319       -1.000403        0.066809
6
  Step 30: 30.0 fs
C        0.014614        0.653080        0.004986
H        0.910027        1.171854        0.046425
H       -0.949783        1.342058       -0.001568
C       -0.017012       -0.682928       -0.020913
H       -0.883984       -1.172881        0.087109
H        0.952527       -0.985357        0.057674
6
  Step 31: 31.0 fs
C        0.009947        0.659979        0.003314
H        0.958968        1.205683        0.034272
H       -0.914933        1.297605        0.011471
C       -0.019544       -0.685437       -0.015243
H       -0.914023       -1.204060        0.047412
H        0.984487       -0.995830        0.048889
6
  Step 32: 32.0 fs
C        0.004088        0.667232        0.001603
H        1.006043        1.238685        0.021270
H       -0.872095        1.247592        0.024086
C       -0.020996       -0.684768       -0.009291
H       -0.957615       -1.250515        0.006847
H        1.025231       -1.026688        0.039353
6
  Step 33: 33.0 fs
C       -0.000230        0.673851       -0.000062
H        1.037184        1.262855        0.007758
H       -0.840935        1.206956        0.036038
C       -0.021475       -0.682204       -0.003119
H       -0.995569       -1.299310       -0.034253
H        1.058007       -1.070739        0.028348
6
  Step 34: 34.0 fs
C       -0.000562        0.678529       -0.001691
H        1.045219        1.274341       -0.005647
H       -0.843889        1.191336        0.047853
C       -0.021058       -0.678877        0.003037
H       -1.014982       -1.340180       -0.074075
H        1.071341       -1.121049        0.015848
6
  Step 35: 35.0 fs
C        0.003580        0.680938       -0.003285
H        1.028324        1.272233       -0.018264
H       -0.884850        1.203384        0.059774
C       -0.019781       -0.675631        0.008871
H       -1.010110       -1.366716       -0.110317
H        1.059796       -1.171774        0.002308
6
  Step 36: 36.0 fs
C        0.010311        0.681914       -0.004733
H        0.989507        1.258209       -0.029471
H       -0.943666        1.230668        0.070550
C       -0.017726       -0.673060        0.014082
H       -0.980337       -1.375565       -0.140841
H        1.023054       -1.218413       -0.011547
6
  Step 37: 37.0 fs
C        0.017047        0.682189       -0.005873
H        0.937650        1.237361       -0.038831
H       -0.997176        1.259064        0.078394
C       -0.015042       -0.671436        0.018415
H       -0.929360       -1.366106       -0.163997
H        0.965295       -1.258014       -0.024897
6
  Step 38: 38.0 fs
C        0.021377        0.681680       -0.006564
H        0.888816        1.219321       -0.046310
H       -1.030993        1.279584        0.082053
C       -0.011909       -0.670567        0.021709
H       -0.865784       -1.340961       -0.179062
H        0.895505       -1.289916       -0.036998
6
  Step 39: 39.0 fs
C        0.021254        0.679709       -0.006691
H        0.862940        1.216478       -0.052331
H       -1.038706        1.287722        0.080935
C       -0.008357       -0.669610        0.023979
H       -0.804913       -1.307485       -0.187068
H        0.827410       -1.316610       -0.047370
6
  Step 40: 40.0 fs
C        0.015920        0.675946       -0.006198
H        0.870059        1.235248       -0.057173
H       -1.019303        1.281834        0.074931
C       -0.004093       -0.667156        0.025470
H       -0.768157       -1.277914       -0.191279
H        0.776880       -1.343470       -0.055930
6
  Step 41: 41.0 fs
C        0.006695        0.671138       -0.005158
H        0.900221        1.268872       -0.060197
H       -0.976436        1.262727        0.064381
C        0.001316       -0.662182        0.026479
H       -0.773702       -1.263059       -0.195292
H        0.754838       -1.374805       -0.062744
6
  Step 42: 42.0 fs
C       -0.003893        0.666476       -0.003734
H        0.934732        1.304230       -0.060309
H       -0.919598        1.234664        0.050118
C        0.007682       -0.655423        0.026936
H       -0.821025       -1.261411       -0.198643
H        0.761083       -1.408710       -0.067407
6
  Step 43: 43.0 fs
C       -0.013001        0.662573       -0.002121
H        0.959305        1.330874       -0.056824
H       -0.866710        1.207451        0.033512
C        0.014107       -0.649068        0.026432
H       -0.891764       -1.261305       -0.197092
H        0.786326       -1.437431       -0.069054
6
  Step 44: 44.0 fs
C       -0.017858        0.659187       -0.000470
H        0.966552        1.343121       -0.049628
H       -0.842155        1.195723        0.015891
C        0.019698       -0.645192        0.024638
H       -0.965038       -1.252483       -0.187079
H        0.819062       -1.452608       -0.066928
6
  Step 45: 45.0 fs
C       -0.016996        0.656125        0.001173
H        0.954333        1.339035       -0.038995
H       -0.860239        1.208282       -0.002405
C        0.023872       -0.644995        0.021472
H       -1.025698       -1.230379       -0.167445
H        0.850067       -1.449048       -0.060764
6
  Step 46: 46.0 fs
C       -0.011471        0.654184        0.002819
H        0.924560        1.319645       -0.025444
H       -0.909311        1.237168       -0.021492
C        0.026254       -0.648810        0.017053
H       -1.064571       -1.194857       -0.138867
H        0.873645       -1.425535       -0.050786
6
  Step 47: 47.0 fs
C       -0.003737        0.654282        0.004429
H        0.883686        1.289512       -0.009683
H       -0.965595        1.266767       -0.040663
C        0.026545       -0.656194        0.011615
H       -1.077027       -1.148524       -0.103059
H        0.887717       -1.384566       -0.037605
6
  Step 48: 48.0 fs
C        0.003697        0.656296        0.005919
H        0.844273        1.258042        0.007507
H       -1.010850        1.285817       -0.058621
C        0.024479       -0.665980        0.005467
H       -1.062533       -1.096055       -0.062376
H        0.893982       -1.332059       -0.022072
6
  Step 49: 49.0 fs
C        0.008539        0.659060        0.007183
H        0.824214        1.238831        0.025588
H       -1.035167        1.289140       -0.074123
C        0.019958       -0.676422       -0.001041
H       -1.025869       -1.044181       -0.019558
H        0.897877       -1.276615       -0.005017
6
  Step 50: 50.0 fs
C        0.009323        0.661356        0.008075
H        0.836730        1.241980        0.044483
H       -1.034491        1.275584       -0.086192
C        0.013440       -0.685510       -0.007583
H       -0.979914       -1.002005        0.022799
H        0.907013       -1.227508        0.013068
6
  Step 51: 51.0 fs
C        0.006412        0.662984        0.008485
H        0.876885        1.264245        0.063838
H       -1.009183        1.246778       -0.094175
C        0.006426       -0.691480       -0.013958
H       -0.946611       -0.980242        0.063443
H        0.926431       -1.191026        0.032081
6
  Step 52: 52.0 fs
C        0.001629        0.664452        0.008407
H        0.926375        1.292839        0.082301
H       -0.964496        1.207297       -0.097910
C        0.000966       -0.693348       -0.020132
H       -0.946814       -0.987238        0.103275
H        0.954422       -1.168377        0.051955
6
  Step 53: 53.0 fs
C       -0.002761        0.665939        0.007953
H        0.968155        1.316056        0.098111
H       -0.912942        1.165954       -0.098163
C       -0.002160       -0.691250       -0.025993
H       -0.979909       -1.022977        0.142713
H        0.983686       -1.157180        0.072150
6
  Step 54: 54.0 fs
C       -0.004370        0.666898        0.007332
H        0.991904        1.327040        0.109844
H       -0.875720        1.136252       -0.096967
C       -0.003782       -0.686210       -0.031122
H       -1.024533       -1.078848        0.178789
H        1.005822       -1.154020        0.091615
6
  Step 55: 55.0 fs
C       -0.001308        0.666589        0.006761
H        0.993269        1.322999        0.116635
H       -0.874021        1.131019       -0.096677
C       -0.004949       -0.679519       -0.034993
H       -1.058976       -1.143632        0.207091
H        1.014640       -1.155940        0.109118
6
  Step 56: 56.0 fs
C        0.006213        0.665142        0.006258
H        0.972607        1.304106        0.118171
H       -0.908312        1.151060       -0.097409
C       -0.006272       -0.672372       -0.037205
H       -1.070444       -1.207661        0.224184
H        1.007263       -1.160910        0.123550
6
  Step 57: 57.0 fs
C        0.015838        0.663532        0.005615
H        0.935155        1.273608        0.114774
H       -0.957636        1.185006       -0.096998
C       -0.008066       -0.665758       -0.037531
H       -1.053863       -1.263704        0.228128
H        0.984235       -1.167890        0.134136
6
  Step 58: 58.0 fs
C        0.024677        0.662446        0.004592
H        0.892588        1.239074        0.107634
H       -1.000246        1.220509       -0.093549
C       -0.010565       -0.660392       -0.035911
H       -1.009371       -1.306696        0.218254
H        0.949433       -1.176824        0.140584
6
  Step 59: 59.0 fs
C        0.030058        0.661726        0.002981
H        0.863384        1.212759        0.098870
H       -1.023102        1.249551       -0.086388
C       -0.013946       -0.656633       -0.032431
H       -0.941469       -1.333836        0.195044
H        0.909784       -1.188586        0.143143
6
  Step 60: 60.0 fs
C        0.030034        0.660842        0.000657
H        0.865248        1.206351        0.090576
H       -1.020651        1.268009       -0.075739
C       -0.018157       -0.654422       -0.027333
H       -0.859865       -1.345685        0.160297
H        0.874296       -1.204574        0.142504
6
  Step 61: 61.0 fs
C        0.024500        0.659939       -0.002291
H        0.899224        1.220150        0.083012
H       -0.992438        1.274421       -0.062370
C       -0.022540       -0.653213       -0.021008
H       -0.781167       -1.348606        0.117345
H        0.851502       -1.225495        0.139440
6
  Step 62: 62.0 fs
C        0.015241        0.659900       -0.005593
H        0.948506        1.242672        0.074858
H       -0.942609        1.269889       -0.047458
C       -0.025632       -0.652016       -0.013887
H       -0.727717       -1.356143        0.070210
H        0.846016       -1.249736        0.134353
6
  Step 63: 63.0 fs
C        0.004727        0.661335       -0.008960
H        0.994173        1.261502        0.065071
H       -0.881263        1.259306       -0.032496
C       -0.025941       -0.650076       -0.006221
H       -0.716658       -1.381257        0.020977
H        0.856810       -1.273036        0.127221
6
  Step 64: 64.0 fs
C       -0.004453        0.663955       -0.012161
H        1.023963        1.269056        0.053526
H       -0.826211        1.253157       -0.019027
C       -0.023297       -0.648076        0.001940
H       -0.745247       -1.420751       -0.030714
H        0.878396       -1.289959        0.117936
6
  Step 65: 65.0 fs
C       -0.009911        0.666738       -0.015059
H        1.032249        1.262281        0.040687
H       -0.799127        1.265648       -0.008069
C       -0.018702       -0.647712        0.010420
H       -0.795621       -1.457919       -0.083962
H        0.903680       -1.295959        0.106594
6
  Step 66: 66.0 fs
C       -0.010663        0.668988       -0.017603
H        1.018274        1.241212        0.027265
H       -0.809437        1.303089        0.000160
C       -0.013262       -0.650261        0.018828
H       -0.849925       -1.477986       -0.135565
H        0.926453       -1.288702        0.093581
6
  Step 67: 67.0 fs
C       -0.007903        0.671107       -0.019769
H        0.985645        1.208531        0.014088
H       -0.844804        1.355107        0.005471
C       -0.007824       -0.656073        0.026710
H       -0.895919       -1.473598       -0.181706
H        0.942831       -1.268446        0.079520
6
  Step 68: 68.0 fs
C       -0.003919        0.673653       -0.021517
H        0.943600        1.170272        0.002066
H       -0.885364        1.404879        0.007425
C       -0.003088       -0.664710        0.033648
H       -0.926213       -1.443131       -0.219080
H        0.951913       -1.237900        0.065167
6
  Step 69: 69.0 fs
C       -0.001130        0.676389       -0.022824
H        0.908313        1.136365       -0.007888
H       -0.916673        1.440085        0.005732
C        0.000292       -0.675154        0.039297
H       -0.937016       -1.388778       -0.245213
H        0.955876       -1.201754        0.051259
6
  Step 70: 70.0 fs
C       -0.001655        0.678441       -0.023672
H        0.899021        1.118081       -0.015102
H       -0.931080        1.454460        0.000401
C        0.001761       -0.686016        0.043422
H       -0.928028       -1.315877       -0.258800
H        0.959346       -1.165843        0.038352
6
  Step 71: 71.0 fs
C       -0.006239        0.679203       -0.024020
H        0.923471        1.120264       -0.019393
H       -0.925886        1.446059       -0.008325
C        0.001166       -0.695715        0.045976
H       -0.903979       -1.233379       -0.260402
H        0.967327       -1.135698        0.026718
6
  Step 72: 72.0 fs
C       -0.013585        0.678806       -0.023829
H        0.969074        1.137377       -0.020867
H       -0.902497        1.416371       -0.020047
C       -0.000732       -0.702633        0.047189
H       -0.877451       -1.154528       -0.253633
H        0.981889       -1.114865        0.016435
6
  Step 73: 73.0 fs
C       -0.021342        0.677531       -0.023074
H        1.015362        1.159982       -0.019681
H       -0.867109        1.370860       -0.034304
C       -0.002098       -0.705320        0.047579
H       -0.869021       -1.094947       -0.245333
H        1.000415       -1.104368        0.007567
6
  Step 74: 74.0 fs
C       -0.027051        0.675155       -0.021739
H        1.046876        1.180848       -0.016052
H       -0.832479        1.320468       -0.050763
C       -0.001165       -0.703042        0.047588
H       -0.895125       -1.065051       -0.241249
H        1.017236       -1.103552        0.000308
6
  Step 75: 75.0 fs
C       -0.028418        0.670936       -0.019797
H        1.055464        1.195922       -0.010273
H       -0.817218        1.280745       -0.069629
C        0.002001       -0.696266        0.047074
H       -0.949922       -1.063230       -0.239836
H        1.026786       -1.111160       -0.005020
6
  Step 76: 76.0 fs
C       -0.024096        0.664472       -0.017220
H        1.038635        1.203473       -0.002676
H       -0.835176        1.262862       -0.091561
C        0.005863       -0.686251        0.045540
H       -1.011366       -1.080422       -0.234930
H        1.025564       -1.125906       -0.008015
6
  Step 77: 77.0 fs
C       -0.014823        0.656702       -0.014105
H        0.998560        1.203657        0.006434
H       -0.880804        1.262761       -0.116124
C        0.008945       -0.674474        0.042652
H       -1.059626       -1.107457       -0.221928
H        1.012439       -1.146662       -0.008267
6
  Step 78: 78.0 fs
C       -0.002975        0.649343       -0.010734
H        0.942645        1.199137        0.016849
H       -0.934827        1.267023       -0.140993
C        0.010330       -0.662416        0.038345
H       -1.083157       -1.137319       -0.199173
H        0.988346       -1.172483       -0.005424
6
  Step 79: 79.0 fs
C        0.008680        0.643663       -0.007451
H        0.884892        1.196527        0.028573
H       -0.979907        1.264720       -0.163334
C        0.009542       -0.651479        0.032739
H       -1.077181       -1.164918       -0.167079
H        0.955822       -1.202551        0.000764
6
  Step 80: 80.0 fs
C        0.017555        0.640055       -0.004574
H        0.844428        1.206529        0.042018
H       -1.005971        1.250548       -0.180927
C        0.006438       -0.642879        0.026065
H       -1.041935       -1.186694       -0.127379
H        0.918394       -1.236034        0.010424
6
  Step 81: 81.0 fs
C        0.022011        0.638538       -0.002350
H        0.835163        1.237790        0.057757
H       -1.009052        1.223404       -0.192399
C        0.001270       -0.637505        0.018633
H       -0.982647       -1.200951       -0.082782
H        0.879937       -1.271807        0.023568
6
  Step 82: 82.0 fs
C        0.022254        0.639597       -0.000879
H        0.853366        1.287023        0.075465
H       -0.989766        1.185072       -0.197158
C       -0.005119       -0.635741        0.010824
H       -0.911131       -1.209182       -0.036748
H        0.844129       -1.308093        0.040052
6
  Step 83: 83.0 fs
C        0.019895        0.643939       -0.000075
H        0.882897        1.340912        0.093499
H       -0.953443        1.140160       -0.195534
C       -0.011144       -0.637221        0.003038
H       -0.847175       -1.217933        0.007301
H        0.814154       -1.342380        0.059477
6
  Step 84: 84.0 fs
C        0.016981        0.651530        0.000298
H        0.908689        1.386408        0.109816
H       -0.911944        1.096893       -0.189267
C       -0.014858       -0.640881       -0.004416
H       -0.813920       -1.237555        0.047429
H        0.792531       -1.371789        0.081079
6
  Step 85: 85.0 fs
C        0.015686        0.661344        0.000594
H        0.921661        1.415471        0.122743
H       -0.884499        1.066748       -0.181798
C       -0.015264       -0.645838       -0.011355
H       -0.822325       -1.272427        0.083455
H        0.780773       -1.393654        0.103750
6
  Step 86: 86.0 fs
C        0.017741        0.671950        0.001140
H        0.918014        1.424786        0.131225
H       -0.889743        1.059639       -0.176706
C       -0.013058       -0.652160       -0.017517
H       -0.862394       -1.313356        0.114325
H        0.779006       -1.405940        0.126187
6
  Step 87: 87.0 fs
C        0.023076        0.682366        0.001942
H        0.898234        1.414788        0.134895
H       -0.928302        1.075970       -0.174167
C       -0.009641       -0.660206       -0.022541
H       -0.915308       -1.346261        0.137466
H        0.786057       -1.407575        0.147099
6
  Step 88: 88.0 fs
C        0.029689        0.692040        0.002679
H        0.867355        1.389765        0.134177
H       -0.981522        1.107163       -0.171018
C       -0.006159       -0.669862       -0.026119
H       -0.965440       -1.361518        0.150544
H        0.800103       -1.398693        0.165410
6
  Step 89: 89.0 fs
C        0.034991        0.700160        0.002972
H        0.835955        1.358722        0.130508
H       -1.028677        1.143506       -0.164267
C       -0.003355       -0.680477       -0.028080
H       -1.002666       -1.355148        0.152338
H        0.819365       -1.380635        0.180405
6
  Step 90: 90.0 fs
C        0.036646        0.705461        0.002513
H        0.819342        1.334606        0.126220
H       -1.056355        1.178104       -0.152595
C       -0.001675       -0.691114       -0.028382
H       -1.021095       -1.327122        0.142684
H        0.842398       -1.355595        0.191733
6
  Step 91: 91.0 fs
C        0.033201        0.706887        0.001146
H        0.829820        1.327585        0.123279
H       -1.058333        1.206826       -0.136007
C       -0.001302       -0.700770       -0.027086
H       -1.018538       -1.280338        0.122318
H        0.867920       -1.326080        0.199293
6
  Step 92: 92.0 fs
C        0.024889        0.704463       -0.001023
H        0.865248        1.335933        0.121475
H       -1.033656        1.227496       -0.115324
C       -0.002059       -0.708464       -0.024344
H       -0.997131       -1.220570        0.092866
H        0.894395       -1.294394        0.203057
6
  Step 93: 93.0 fs
C        0.013450        0.699089       -0.003682
H        0.910813        1.348338        0.118877