6
  Step 0: 0.0 fs
C       -0.000003        0.665095       -0.000001
H        0.925312        1.240811       -0.000000
H       -0.925298        1.240821        0.000009
C        0.000001       -0.665096       -0.000000
H       -0.925309       -1.240811       -0.000001
H        0.925311       -1.240812        0.000008
6
  Step 1: 1.0 fs
C        0.001971        0.654029       -0.001985
H        0.923745        1.242027        0.015111
H       -0.916722        1.248419       -0.015688
C       -0.011484       -0.664224        0.006779
H       -0.836848       -1.178780       -0.012853
H        0.943101       -1.190290       -0.043653
6
  Step 2: 2.0 fs
C        0.003811        0.643913       -0.003881
H        0.921638        1.241656        0.029554
H       -0.907626        1.254949       -0.030763
C       -0.018795       -0.661301        0.013372
H       -0.795218       -1.147395       -0.026260
H        0.959629       -1.142183       -0.085541
6
  Step 3: 3.0 fs
C        0.005367        0.635727       -0.005600
H        0.918936        1.238533        0.042688
H       -0.897850        1.259562       -0.044642
C       -0.018654       -0.654935        0.019744
H       -0.836034       -1.170514       -0.042617
H        0.973165       -1.098878       -0.123834
6
  Step 4: 4.0 fs
C        0.006479        0.630496       -0.007068
H        0.916284        1.232319        0.053937
H       -0.887789        1.261894       -0.056801
C       -0.013776       -0.647608        0.025617
H       -0.924577       -1.227379       -0.061041
H        0.982984       -1.063099       -0.156946
6
  Step 5: 5.0 fs
C        0.006983        0.629021       -0.008234
H        0.914978        1.223530        0.062831
H       -0.878483        1.262261       -0.066794
C       -0.008079       -0.642520        0.030538
H       -1.012613       -1.287530       -0.077930
H        0.989189       -1.037538       -0.183673
6
  Step 6: 6.0 fs
C        0.006755        0.631580       -0.009063
H        0.916621        1.213305        0.069062
H       -0.871542        1.261690       -0.074313
C       -0.003513       -0.641296        0.034202
H       -1.075818       -1.335004       -0.090874
H        0.992176       -1.024326       -0.203205
6
  Step 7: 7.0 fs
C        0.005768        0.637833       -0.009530
H        0.922524        1.203027        0.072487
H       -0.868800        1.261695       -0.079204
C       -0.000798       -0.644273        0.036452
H       -1.105154       -1.363430       -0.098788
H        0.992298       -1.024635       -0.215048
6
  Step 8: 8.0 fs
C        0.004119        0.646926       -0.009610
H        0.933047        1.193865        0.073060
H       -0.871677        1.263761       -0.081415
C       -0.000174       -0.651005        0.037199
H       -1.097986       -1.370581       -0.101217
H        0.989696       -1.038506       -0.218921
6
  Step 9: 9.0 fs
C        0.002003        0.657729       -0.009286
H        0.947153        1.186462        0.070784
H       -0.880442        1.268736       -0.080923
C       -0.001675       -0.660592        0.036400
H       -1.054851       -1.356304       -0.098008
H        0.984289       -1.064833       -0.214690
6
  Step 10: 10.0 fs
C       -0.000343        0.669076       -0.008554
H        0.962503        1.180927        0.065695
H       -0.893778        1.276422       -0.077694
C       -0.005090       -0.671867        0.034062
H       -0.979844       -1.322691       -0.089356
H        0.975872       -1.101457       -0.202365
6
  Step 11: 11.0 fs
C       -0.002709        0.679924       -0.007433
H        0.976097        1.177083        0.057915
H       -0.909016        1.285658       -0.071716
C       -0.009618       -0.683354        0.030298
H       -0.884563       -1.276561       -0.076302
H        0.964329       -1.145370       -0.182150
6
  Step 12: 12.0 fs
C       -0.004949        0.689381       -0.005970
H        0.985165        1.174775        0.047719
H       -0.922928        1.294785       -0.063078
C       -0.013088       -0.692818        0.025430
H       -0.797320       -1.235593       -0.061782
H        0.949912       -1.193072       -0.154559
6
  Step 13: 13.0 fs
C       -0.006990        0.696738       -0.004232
H        0.987910        1.174060        0.035553
H       -0.932645        1.302180       -0.052031
C       -0.011714       -0.697105        0.019981
H       -0.765913       -1.230864       -0.050532
H        0.933427       -1.241032       -0.120503
6
  Step 14: 14.0 fs
C       -0.008803        0.701530       -0.002305
H        0.983967        1.175377        0.021991
H       -0.936387        1.306626       -0.038983
C       -0.004018       -0.694835        0.014225
H       -0.811206       -1.275525       -0.043614
H        0.916373       -1.286225       -0.081323
6
  Step 15: 15.0 fs
C       -0.010356        0.703554       -0.000276
H        0.974424        1.179542        0.007687
H       -0.933852        1.307519       -0.024493
C        0.006425       -0.688439        0.008063
H       -0.894065       -1.340755       -0.037291
H        0.900390       -1.326304       -0.038626
6
  Step 16: 16.0 fs
C       -0.011601        0.702767        0.001774
H        0.961450        1.187458       -0.006669
H       -0.926310        1.304997       -0.009249
C        0.016131       -0.680557        0.001552
H       -0.975012       -1.397739       -0.029597
H        0.886034       -1.359207        0.005914
6
  Step 17: 17.0 fs
C       -0.012453        0.699250        0.003774
H        0.947571        1.199758       -0.020421
H       -0.916383        1.299903        0.006024
C        0.023493       -0.672687       -0.005081
H       -1.035284       -1.433030       -0.020591
H        0.872755       -1.382946        0.050558
6
  Step 18: 18.0 fs
C       -0.012767        0.693244        0.005662
H        0.934750        1.216420       -0.032983
H       -0.907398        1.293476        0.020649
C        0.027959       -0.665711       -0.011558
H       -1.067877       -1.441957       -0.010936
H        0.859751       -1.395816        0.093479
6
  Step 19: 19.0 fs
C       -0.012360        0.685216        0.007377
H        0.923730        1.236497       -0.043794
H       -0.902326        1.286741        0.034045
C        0.029367       -0.660268       -0.017600
H       -1.070597       -1.423467       -0.001385
H        0.846812       -1.396874        0.132860
6
  Step 20: 20.0 fs
C       -0.011088        0.675881        0.008859
H        0.913990        1.258130       -0.052273
H       -0.902724        1.279905        0.045696
C        0.027682       -0.656856       -0.022953
H       -1.043549       -1.378252        0.007311
H        0.834827       -1.386361        0.167089
6
  Step 21: 21.0 fs
C       -0.008920        0.666148        0.010052
H        0.904318        1.278922       -0.057833
H       -0.908274        1.272133        0.055093
C        0.022990       -0.655760       -0.027406
H       -0.989302       -1.308925        0.014430
H        0.825861       -1.365866        0.194950
6
  Step 22: 22.0 fs
C       -0.005957        0.656984        0.010913
H        0.893587        1.296510       -0.059968
H       -0.917187        1.261920        0.061730
C        0.015785       -0.656827       -0.030812
H       -0.916051       -1.222200        0.019422
H        0.822766       -1.338156        0.215753
6
  Step 23: 23.0 fs
C       -0.002396        0.649244        0.011410
H        0.881379        1.309122       -0.058358
H       -0.927143        1.247797        0.065180
C        0.007737       -0.659037       -0.033132
H       -0.845847       -1.133766        0.022577
H        0.828151       -1.306610        0.229244
6
  Step 24: 24.0 fs
C        0.001504        0.643534        0.011520
H        0.868348        1.316029       -0.052961
H       -0.936166        1.228967        0.065201
C        0.002556       -0.660258       -0.034511
H       -0.823258       -1.071467        0.026186
H        0.842889       -1.274461        0.235319
6
  Step 25: 25.0 fs
C        0.005443        0.640211        0.011236
H        0.856294        1.317809       -0.044028
H       -0.943109        1.205654        0.061772
C        0.003311       -0.659078       -0.035139
H       -0.882811       -1.054455        0.032995
H        0.865538       -1.244418        0.233874
6
  Step 26: 26.0 fs
C        0.009094        0.639430        0.010576
H        0.847875        1.316248       -0.032008
H       -0.947785        1.179221        0.055035
C        0.007542       -0.656983       -0.034865
H       -0.991374       -1.067782        0.041213
H        0.893367       -1.218753        0.224977
6
  Step 27: 27.0 fs
C        0.012129        0.641063        0.009572
H        0.845828        1.313652       -0.017451
H       -0.950924        1.152050        0.045287
C        0.011509       -0.655815       -0.033457
H       -1.099158       -1.091084        0.047689
H        0.922967       -1.199034        0.208870
6
  Step 28: 28.0 fs
C        0.014335        0.644705        0.008266
H        0.851799        1.311838       -0.000932
H       -0.953991        1.127154        0.032954
C        0.013477       -0.656377       -0.030844
H       -1.179263       -1.114162        0.050919
H        0.950471       -1.185919        0.185893
6
  Step 29: 29.0 fs
C        0.015696        0.649812        0.006701
H        0.865377        1.311319        0.016969
H       -0.958628        1.107551        0.018541
C        0.013055       -0.658774       -0.027077
H       -1.220966       -1.132872        0.050502
H        0.972068       -1.179363        0.156611
6
  Step 30: 30.0 fs
C        0.016363        0.655830        0.004932
H        0.883953        1.311168        0.035601
H       -0.965768        1.095652        0.002593
C        0.010340       -0.662757       -0.022282
H       -1.220631       -1.145446        0.046438
H        0.984675       -1.178966        0.121955
6
  Step 31: 31.0 fs
C        0.016544        0.662253        0.003030
H        0.903580        1.309649        0.054185
H       -0.974912        1.092790       -0.014299
C        0.005564       -0.667892       -0.016634
H       -1.178138       -1.151189        0.038882
H        0.986426       -1.184187        0.083220
6
  Step 32: 32.0 fs
C        0.016373        0.668620        0.001076
H        0.920315        1.305128        0.071824
H       -0.984057        1.099081       -0.031480
C       -0.000931       -0.673607       -0.010355
H       -1.096900       -1.150475        0.028150
H        0.976978       -1.194441        0.041990
6
  Step 33: 33.0 fs
C        0.015869        0.674490       -0.000839
H        0.931297        1.296712        0.087602
H       -0.990354        1.113616       -0.048214
C       -0.008390       -0.679118       -0.003713
H       -0.987423       -1.146213        0.014811
H        0.957635       -1.209097        0.000016
6
  Step 34: 34.0 fs
C        0.014939        0.679422       -0.002635
H        0.935343        1.284484        0.100736
H       -0.991101        1.134865       -0.063729
C       -0.014906       -0.683113        0.002994
H       -0.875759       -1.148091       -0.000336
H        0.931335       -1.227397       -0.040935
6
  Step 35: 35.0 fs
C        0.013398        0.682990       -0.004243
H        0.933191        1.269478        0.110717
H       -0.984516        1.161076       -0.077314
C       -0.016980       -0.683395        0.009538
H       -0.808370       -1.177451       -0.017208
H        0.902558       -1.248375       -0.079223
6
  Step 36: 36.0 fs
C        0.011029        0.684876       -0.005617
H        0.927340        1.253510        0.117382
H       -0.970137        1.190563       -0.088402
C       -0.012676       -0.678418        0.015836
H       -0.814301       -1.250122       -0.037232
H        0.876919       -1.270938       -0.113416
6
  Step 37: 37.0 fs
C        0.007697        0.685007       -0.006731
H        0.921382        1.238807        0.120847
H       -0.949003        1.221850       -0.096602
C       -0.005012       -0.670040        0.021650
H       -0.863468       -1.345203       -0.059518
H        0.859341       -1.293766       -0.142355
6
  Step 38: 38.0 fs
C        0.003435        0.683548       -0.007574
H        0.918765        1.227250        0.121337
H       -0.923535        1.253812       -0.101721
C        0.002564       -0.661210        0.026557
H       -0.917884       -1.432500       -0.080729
H        0.851449       -1.314624       -0.164907
6
  Step 39: 39.0 fs
C       -0.001503        0.680835       -0.008127
H        0.921376        1.219538        0.118984
H       -0.897026        1.285708       -0.103789
C        0.008496       -0.653931        0.030205
H       -0.958944       -1.495380       -0.098261
H        0.851571       -1.330301       -0.179802
6
  Step 40: 40.0 fs
C       -0.006671        0.677339       -0.008360
H        0.928824        1.214884        0.113740
H       -0.872783        1.316969       -0.102981
C        0.012318       -0.649379        0.032364
H       -0.979819       -1.527287       -0.110677
H        0.856783       -1.337581       -0.185890
6
  Step 41: 41.0 fs
C       -0.011552        0.673594       -0.008246
H        0.938868        1.211434        0.105453
H       -0.853193        1.346734       -0.099487
C        0.013922       -0.648206        0.032917
H       -0.978359       -1.526274       -0.117216
H        0.864716       -1.334284       -0.182497
6
  Step 42: 42.0 fs
C       -0.015696        0.670106       -0.007773
H        0.948582        1.207084        0.094052
H       -0.839213        1.373489       -0.093452
C        0.013248       -0.650638        0.031837
H       -0.954373       -1.492635       -0.117462
H        0.874410       -1.319846       -0.169653
6
  Step 43: 43.0 fs
C       -0.018802        0.667250       -0.006954
H        0.955463        1.200210        0.079710
H       -0.830538        1.395127       -0.085006
C        0.010275       -0.656429        0.029190
H       -0.909583       -1.428872       -0.111350
H        0.886450       -1.295416       -0.148104
6
  Step 44: 44.0 fs
C       -0.020718        0.665191       -0.005823
H        0.958105        1.190084        0.062895
H       -0.826235        1.409468       -0.074350
C        0.005278       -0.664695        0.025158
H       -0.850224       -1.342046       -0.099615
H        0.902463       -1.263520       -0.119136
6
  Step 45: 45.0 fs
C       -0.021425        0.663857       -0.004431
H        0.956535        1.177036        0.044339
H       -0.825372        1.414890       -0.061829
C       -0.000461       -0.673544        0.020103
H       -0.794155       -1.249334       -0.084815
H        0.923855       -1.227360       -0.084283
6
  Step 46: 46.0 fs
C       -0.021017        0.662982       -0.002844
H        0.952253        1.162432        0.024939
H       -0.827396        1.410763       -0.047941
C       -0.003769       -0.679853        0.014619
H       -0.779448       -1.182444       -0.072108
H        0.949998       -1.189996       -0.045083
6
  Step 47: 47.0 fs
C       -0.019672        0.662263       -0.001142
H        0.947916        1.148485        0.005601
H       -0.832254        1.397545       -0.033271
C       -0.001663       -0.681271        0.009188
H       -0.839109       -1.165685       -0.064967
H        0.977762       -1.154132       -0.003150
6
  Step 48: 48.0 fs
C       -0.017595        0.661492        0.000582
H        0.946518        1.137816       -0.012893
H       -0.840314        1.376661       -0.018418
C        0.003867       -0.679047        0.003754
H       -0.945801       -1.183227       -0.060110
H        1.003346       -1.122351        0.039799
6
  Step 49: 49.0 fs
C       -0.014972        0.660558        0.002239
H        0.950028        1.132574       -0.029903
H       -0.852086        1.350212       -0.003974
C        0.009196       -0.675343       -0.001754
H       -1.052217       -1.210017       -0.053913
H        1.023340       -1.096850        0.082028
6
  Step 50: 50.0 fs
C       -0.011903        0.659453        0.003741
H        0.958236        1.133700       -0.044878
H       -0.867794        1.320520        0.009484
C        0.012461       -0.671390       -0.007196
H       -1.131721       -1.232974       -0.045296
H        1.034935       -1.079238        0.121845
6
  Step 51: 51.0 fs
C       -0.008399        0.658309        0.005005
H        0.968679        1.140795       -0.057260
H       -0.886988        1.289673        0.021426
C        0.013112       -0.667817       -0.012348
H       -1.173653       -1.246833       -0.034390
H        1.036155       -1.070556        0.157665
6
  Step 52: 52.0 fs
C       -0.004453        0.657376        0.005951
H        0.977665        1.152547       -0.066461
H       -0.908268        1.259187        0.031378
C        0.011115       -0.665017       -0.016975
H       -1.174577       -1.249488       -0.021712
H        1.026173       -1.071398        0.188071
6
  Step 53: 53.0 fs
C       -0.000126        0.656936        0.006508
H        0.981709        1.167367       -0.071936
H       -0.929409        1.230014        0.038894
C        0.006604       -0.663258       -0.020863
H       -1.134621       -1.240270       -0.007940
H        1.005522       -1.081977        0.211922
6
  Step 54: 54.0 fs
C        0.004416        0.657205        0.006628
H        0.978570        1.183893       -0.073296
H       -0.947882        1.202837        0.043570
C       -0.000139       -0.662651       -0.023829
H       -1.057410       -1.219905        0.006126
H        0.976126       -1.102127        0.228429
6
  Step 55: 55.0 fs
C        0.008925        0.658241        0.006284
H        0.967749        1.201284       -0.070409
H       -0.961566        1.178378        0.045107
C       -0.008381       -0.662974       -0.025734
H       -0.953485       -1.192193        0.019698
H        0.941161       -1.131247        0.237198
6
  Step 56: 56.0 fs
C        0.013084        0.659900        0.005474
H        0.950604        1.219363       -0.063459
H       -0.969266        1.157535        0.043376
C       -0.016197       -0.663269       -0.026531
H       -0.848682       -1.168726        0.032621
H        0.904751       -1.168199        0.238195
6
  Step 57: 57.0 fs
C        0.016535        0.661863        0.004219
H        0.930090        1.238602       -0.052955
H       -0.970986        1.141375        0.038460
C       -0.019924       -0.661445       -0.026379
H       -0.789810       -1.173915        0.046729
H        0.871406       -1.211187        0.231638
6
  Step 58: 58.0 fs
C        0.018952        0.663804        0.002563
H        0.910029        1.259897       -0.039627
H       -0.967890        1.130984        0.030636
C       -0.017166       -0.656051       -0.025514
H       -0.808278       -1.225510        0.064392
H        0.845227       -1.257827        0.217876
6
  Step 59: 59.0 fs
C        0.020164        0.665623        0.000571
H        0.893745        1.283921       -0.024234
H       -0.962022        1.127228        0.020310
C       -0.010518       -0.649220       -0.023752
H       -0.874651       -1.301483        0.082720
H        0.828428       -1.305120        0.197229
6
  Step 60: 60.0 fs
C        0.020229        0.667432       -0.001689
H        0.882778        1.310202       -0.007509
H       -0.955779        1.130546        0.007981
C       -0.003259       -0.643982       -0.020783
H       -0.948762       -1.370992        0.097195
H        0.820075       -1.349124        0.169919
6
  Step 61: 61.0 fs
C        0.019384        0.669440       -0.004139
H        0.876486        1.336724        0.009795
H       -0.951179        1.140750       -0.005787
C        0.003076       -0.642093       -0.016521
H       -1.009523       -1.417746        0.105611
H        0.817165       -1.385493        0.136391
6
  Step 62: 62.0 fs
C        0.017924        0.671828       -0.006700
H        0.872835        1.360444        0.026870
H       -0.949150        1.156830       -0.020408
C        0.007965       -0.644199       -0.011069
H       -1.048220       -1.435816        0.107451
H        0.816654       -1.410596        0.097673
6
  Step 63: 63.0 fs
C        0.016076        0.674655       -0.009286
H        0.869609        1.378275        0.042851
H       -0.949242        1.176936       -0.035266
C        0.011176       -0.650218       -0.004644
H       -1.061268       -1.423898        0.102912
H        0.816792       -1.422442        0.055380
6
  Step 64: 64.0 fs
C        0.013948        0.677794       -0.011815
H        0.865361        1.387942        0.056876
H       -0.950004        1.198642       -0.049704
C        0.012500       -0.659545        0.002479
H       -1.047442       -1.382960        0.092524
H        0.817568       -1.421067        0.011489
6
  Step 65: 65.0 fs
C        0.011552        0.680925       -0.014208
H        0.859854        1.388475        0.068184
H       -0.949743        1.219421       -0.063037
C        0.011757       -0.671139        0.009988
H       -1.007822       -1.316130        0.077123
H        0.820574       -1.408446       -0.032001
6
  Step 66: 66.0 fs
C        0.008860        0.683583       -0.016394
H        0.854105        1.380341        0.076215
H       -0.947243        1.237108       -0.074597
C        0.009097       -0.683525        0.017551
H       -0.948544       -1.230441        0.057988
H        0.828275       -1.387870       -0.073374
6
  Step 67: 67.0 fs
C        0.005850        0.685235       -0.018308
H        0.850173        1.365294        0.080683
H       -0.942185        1.250256       -0.083827
C        0.005717       -0.694674        0.024822
H       -0.887868       -1.140500        0.036901
H        0.842567       -1.362838       -0.111296
6
  Step 68: 68.0 fs
C        0.002556        0.685384       -0.019889
H        0.850613        1.345914        0.081590
H       -0.935220        1.258296       -0.090369
C        0.004623       -0.702054        0.031499
H       -0.863568       -1.069966        0.015167
H        0.863112       -1.335934       -0.144611
6
  Step 69: 69.0 fs
C       -0.000876        0.683707       -0.021068
H        0.857520        1.324790        0.079120
H       -0.927740        1.261488       -0.094101
C        0.008611       -0.704007        0.037470
H       -0.908643       -1.036074       -0.008172
H        0.887174       -1.308673       -0.172129
6
  Step 70: 70.0 fs
C       -0.004160        0.680151       -0.021775
H        0.871471        1.303667        0.073446
H       -0.921442        1.260759       -0.095048
C        0.015916       -0.701240        0.042598
H       -1.000968       -1.031349       -0.033513
H        0.911380       -1.282145       -0.192811
6
  Step 71: 71.0 fs
C       -0.006926        0.674907       -0.021954
H        0.890988        1.283007        0.064617
H       -0.917782        1.257402       -0.093273
C        0.022913       -0.695219        0.046566
H       -1.095956       -1.041514       -0.058455
H        0.932821       -1.257223       -0.205926
6
  Step 72: 72.0 fs
C       -0.008813        0.668381       -0.021574
H        0.912918        1.262273        0.052636
H       -0.917451        1.252640       -0.088850
C        0.027478       -0.687053        0.049088
H       -1.166449       -1.058222       -0.080378
H        0.949181       -1.234556       -0.211002
6
  Step 73: 73.0 fs
C       -0.009565        0.661173       -0.020640
H        0.933527        1.240693        0.037618
H       -0.920067        1.247258       -0.081866
C        0.028812       -0.677644        0.050004
H       -1.201086       -1.077302       -0.097525
H        0.958897       -1.214718       -0.207841
6
  Step 74: 74.0 fs
C       -0.009090        0.654030       -0.019198
H        0.949636        1.217937        0.019911
H       -0.924274        1.241520       -0.072456
C        0.026712       -0.667889        0.049254
H       -1.196087       -1.096296       -0.108735
H        0.961354       -1.198335       -0.196569
6
  Step 75: 75.0 fs
C       -0.007462        0.647760       -0.017323
H        0.959380        1.194461        0.000102
H       -0.928223        1.235372       -0.060845
C        0.021223       -0.658711        0.046853
H       -1.151530       -1.113529       -0.113184
H        0.956983       -1.186109       -0.177658
6
  Step 76: 76.0 fs
C       -0.004890        0.643130       -0.015107
H        0.962585        1.171566       -0.021031
H       -0.930219        1.228796       -0.047400
C        0.012607       -0.651000        0.042887
H       -1.071023       -1.128124       -0.110411
H        0.947230       -1.178721       -0.151905
6
  Step 77: 77.0 fs
C       -0.001677        0.640714       -0.012648
H        0.960828        1.151265       -0.042604
H       -0.929261        1.222138       -0.032632
C        0.001600       -0.645394        0.037538
H       -0.964534       -1.141299       -0.100751
H        0.934352       -1.176579       -0.120350
6
  Step 78: 78.0 fs
C        0.001802        0.640761       -0.010033
H        0.957098        1.135914       -0.063746
H       -0.925308        1.216292       -0.017158
C       -0.010008       -0.641835        0.031146
H       -0.854644       -1.160137       -0.086278
H        0.921037       -1.179480       -0.084184
6
  Step 79: 79.0 fs
C        0.005139        0.643145       -0.007345
H        0.954900        1.127599       -0.083703
H       -0.919225        1.212693       -0.001615
C       -0.019084       -0.639093        0.024247
H       -0.779189       -1.202378       -0.071165
H        0.910042       -1.186367       -0.044747
6
  Step 80: 80.0 fs
C        0.007992        0.647525       -0.004666
H        0.956880        1.127487       -0.101860
H       -0.912450        1.213045        0.013436
C       -0.023399       -0.635883        0.017249
H       -0.764327       -1.283875       -0.057816
H        0.903834       -1.195478       -0.003566
6
  Step 81: 81.0 fs
C        0.010207        0.653601       -0.002089
H        0.963546        1.135367       -0.117621
H       -0.906467        1.218803        0.027526
C       -0.024337       -0.633483        0.010163
H       -0.791997       -1.389230       -0.043714
H        0.903651       -1.204689        0.037685
6
  Step 82: 82.0 fs
C        0.011826        0.661114        0.000290
H        0.973030        1.149611       -0.130244
H       -0.902209        1.230684        0.040236
C       -0.024172       -0.634231        0.003042
H       -0.831807       -1.488799       -0.026838
H        0.908479       -1.211794        0.077201
6
  Step 83: 83.0 fs
C        0.012977        0.669703        0.002374
H        0.982053        1.167654       -0.138884
H       -0.899648        1.248390        0.051169
C       -0.024022       -0.639288       -0.003875
H       -0.866103       -1.563456       -0.007484
H        0.915708       -1.214946        0.113085
6
  Step 84: 84.0 fs
C        0.013742        0.678836        0.004087
H        0.987402        1.186789       -0.142806
H       -0.897791        1.270610        0.059940
C       -0.024208       -0.648582       -0.010283
H       -0.887186       -1.604731        0.013110
H        0.922694       -1.213112        0.143548
6
  Step 85: 85.0 fs
C        0.014107        0.687846        0.005376
H        0.986999        1.204771       -0.141575
H       -0.895119        1.295304        0.066191
C       -0.024791       -0.661328       -0.015899
H       -0.891965       -1.609799        0.033564
H        0.927808       -1.206245        0.167138
6
  Step 86: 86.0 fs
C        0.013966        0.695998        0.006218
H        0.980388        1.220112       -0.135151
H       -0.890246        1.320167        0.069641
C       -0.025784       -0.676362       -0.020493
H       -0.879787       -1.579034        0.052584
H        0.930874       -1.195258        0.182920
6
  Step 87: 87.0 fs
C        0.013165        0.702548        0.006618
H        0.968801        1.232184       -0.123907
H       -0.882479        1.343079        0.070147
C       -0.027126       -0.692268       -0.023906
H       -0.852606       -1.516053        0.069083
H        0.933047       -1.181830        0.190541
6
  Step 88: 88.0 fs
C        0.011545        0.706810        0.006598
H        0.954878        1.241146       -0.108568
H       -0.872101        1.362409        0.067754
C       -0.028420       -0.707278       -0.026079
H       -0.817541       -1.430133        0.082620
H        0.936230       -1.168076        0.190173
6
  Step 89: 89.0 fs
C        0.009011        0.708221        0.006188
H        0.941986        1.247671       -0.090082
H       -0.860371        1.377143        0.062706
C       -0.028420       -0.719023       -0.027140
H       -0.792082       -1.340206        0.094545
H        0.942101       -1.156222        0.182328
6
  Step 90: 90.0 fs
C        0.005610        0.706418        0.005412
H        0.933143        1.252479       -0.069446
H       -0.849258        1.386829        0.055425
C       -0.024902       -0.724778       -0.027461
H       -0.804765       -1.272570        0.108881
H        0.951137       -1.148356        0.167693
6
  Step 91: 91.0 fs
C        0.001600        0.701344        0.004291
H        0.929827        1.255789       -0.047544
H       -0.840958        1.391343        0.046419
C       -0.016805       -0.723381       -0.027338
H       -0.869816       -1.238685        0.128470
H        0.962552       -1.146287        0.147102
6
  Step 92: 92.0 fs
C       -0.002568        0.693304        0.002845
H        0.931420        1.257041       -0.025104
H       -0.837292        1.390577        0.036178
C       -0.006290       -0.716181       -0.026545
H       -0.963010       -1.224180        0.149593
H        0.974911       -1.151280        0.121549
6
  Step 93: 93.0 fs
C       -0.006380        0.682903        0.001122
H        0.935628        1.255062       -0.002827