6
  Step 0: 0.0 fs
C        0.000002        0.665092       -0.000002
H        0.925306        1.240817        0.000014
H       -0.925314        1.240808        0.000001
C       -0.000000       -0.665093       -0.000000
H       -0.925312       -1.240818        0.000011
H        0.925304       -1.240801       -0.000002
6
  Step 1: 1.0 fs
C        0.006569        0.657480        0.006142
H        0.837633        1.238170       -0.036996
H       -0.882993        1.205596       -0.012719
C       -0.007259       -0.658082       -0.002333
H       -0.905159       -1.194843       -0.009953
H        0.958741       -1.241749        0.014325
6
  Step 2: 2.0 fs
C        0.011988        0.648707        0.012148
H        0.778264        1.250740       -0.073600
H       -0.857029        1.178801       -0.025161
C       -0.012368       -0.651465       -0.004550
H       -0.898260       -1.158622       -0.019573
H        0.981550       -1.238070        0.027868
6
  Step 3: 3.0 fs
C        0.015614        0.638231        0.018042
H        0.765618        1.290037       -0.111029
H       -0.859816        1.166182       -0.037282
C       -0.013877       -0.645721       -0.006516
H       -0.914123       -1.139053       -0.028618
H        0.987643       -1.227961        0.039692
6
  Step 4: 4.0 fs
C        0.018066        0.627959        0.023627
H        0.789686        1.347363       -0.148037
H       -0.890198        1.166163       -0.048694
C       -0.011784       -0.641889       -0.008132
H       -0.949818       -1.135437       -0.036760
H        0.975543       -1.212197        0.048994
6
  Step 5: 5.0 fs
C        0.020022        0.621150        0.028401
H        0.827902        1.402912       -0.180125
H       -0.934973        1.171449       -0.058312
C       -0.007350       -0.641227       -0.009370
H       -0.992179       -1.141304       -0.043470
H        0.948383       -1.193962        0.055310
6
  Step 6: 6.0 fs
C        0.021508        0.620208        0.031886
H        0.863501        1.441873       -0.203124
H       -0.978867        1.174723       -0.064851
C       -0.002321       -0.644377       -0.010259
H       -1.027238       -1.149809       -0.048182
H        0.914174       -1.178963        0.058648
6
  Step 7: 7.0 fs
C        0.022280        0.625939        0.033787
H        0.887462        1.457083       -0.214614
H       -1.010839        1.171704       -0.067432
C        0.001547       -0.650892       -0.010862
H       -1.045672       -1.156490       -0.050502
H        0.885364       -1.175133        0.059583
6
  Step 8: 8.0 fs
C        0.022158        0.637765        0.033968
H        0.895684        1.446594       -0.213655
H       -1.024938        1.161141       -0.065722
C        0.002912       -0.659484       -0.011233
H       -1.043358       -1.159349       -0.050237
H        0.874130       -1.189720        0.058920
6
  Step 9: 9.0 fs
C        0.021105        0.654141        0.032435
H        0.887602        1.412267       -0.200511
H       -1.019739        1.144179       -0.059895
C        0.001518       -0.668747       -0.011366
H       -1.021006       -1.158495       -0.047407
H        0.883802       -1.223969        0.056963
6
  Step 10: 10.0 fs
C        0.019165        0.672887        0.029353
H        0.866719        1.359944       -0.176764
H       -0.998276        1.124045       -0.050579
C       -0.001530       -0.677651       -0.011181
H       -0.984319       -1.156123       -0.042249
H        0.905931       -1.271060        0.053220
6
  Step 11: 11.0 fs
C        0.016275        0.691303        0.025088
H        0.843175        1.300895       -0.145714
H       -0.968597        1.105995       -0.038814
C       -0.004345       -0.685379       -0.010585
H       -0.944273       -1.156736       -0.035196
H        0.927679       -1.320592        0.047036
6
  Step 12: 12.0 fs
C        0.012108        0.706346        0.020166
H        0.835261        1.251537       -0.112050
H       -0.943581        1.096930       -0.025853
C       -0.005014       -0.691094       -0.009539
H       -0.915269       -1.166473       -0.026798
H        0.939165       -1.363498        0.038173
6
  Step 13: 13.0 fs
C        0.006444        0.715536        0.015007
H        0.860826        1.225716       -0.079169
H       -0.936689        1.103451       -0.012695
C       -0.002390       -0.694182       -0.008080
H       -0.907825       -1.189636       -0.017489
H        0.935464       -1.393687        0.026884
6
  Step 14: 14.0 fs
C        0.000070        0.718247        0.009683
H        0.917768        1.222916       -0.046743
H       -0.953106        1.128307        0.000371
C        0.003261       -0.694631       -0.006311
H       -0.920490       -1.224252       -0.007512
H        0.916204       -1.408050        0.013743
6
  Step 15: 15.0 fs
C       -0.005724        0.715559        0.004155
H        0.984614        1.231705       -0.013438
H       -0.984491        1.167976        0.013479
C        0.010515       -0.692937       -0.004354
H       -0.941980       -1.262571        0.002863
H        0.884857       -1.406344       -0.000525
6
  Step 16: 16.0 fs
C       -0.010269        0.709042       -0.001457
H        1.040090        1.241426        0.020396
H       -1.015541        1.214663        0.026512
C        0.017571       -0.689597       -0.002313
H       -0.960105       -1.295863        0.013217
H        0.848659       -1.391622       -0.015236
6
  Step 17: 17.0 fs
C       -0.013466        0.700106       -0.006897
H        1.071539        1.245828        0.053148
H       -1.033108        1.260133        0.038953
C        0.022737       -0.684789       -0.000261
H       -0.966962       -1.317770        0.023066
H        0.818194       -1.370428       -0.029924
6
  Step 18: 18.0 fs
C       -0.015402        0.689919       -0.011882
H        1.073642        1.241974        0.082882
H       -1.029611        1.297852        0.050123
C        0.024641       -0.678463        0.001765
H       -0.959168       -1.324892        0.031979
H        0.805180       -1.351190       -0.044510
6
  Step 19: 19.0 fs
C       -0.016167        0.679489       -0.016149
H        1.046077        1.229021        0.107780
H       -1.002817        1.323550        0.059405
C        0.022660       -0.670818        0.003742
H       -0.937066       -1.316566        0.039624
H        0.816552       -1.339086       -0.059084
6
  Step 20: 20.0 fs
C       -0.015879        0.669666       -0.019486
H        0.992969        1.207992        0.126405
H       -0.954957        1.335291        0.066344
C        0.017305       -0.662652        0.005602
H       -0.904425       -1.294906        0.045801
H        0.849490       -1.331737       -0.073240
6
  Step 21: 21.0 fs
C       -0.014778        0.660977       -0.021784
H        0.924238        1.182466        0.138124
H       -0.892831        1.334004        0.070785
C        0.010072       -0.655027        0.007205
H       -0.868981       -1.265435        0.050497
H        0.893666       -1.321706       -0.085806
6
  Step 22: 22.0 fs
C       -0.013386        0.653302       -0.023119
H        0.858121        1.160049        0.143898
H       -0.828468        1.324491        0.073047
C        0.002933       -0.648666        0.008374
H       -0.842601       -1.237380        0.053957
H        0.937479       -1.302182       -0.095334
6
  Step 23: 23.0 fs
C       -0.012444        0.645792       -0.023790
H        0.819596        1.152076        0.146627
H       -0.778375        1.315793        0.074077
C       -0.002281       -0.643829        0.008955
H       -0.837845       -1.221136        0.056575
H        0.972017       -1.269912       -0.100631
6
  Step 24: 24.0 fs
C       -0.012187        0.637779       -0.024089
H        0.825794        1.166143        0.148702
H       -0.757827        1.317710        0.075040
C       -0.004646       -0.640855        0.008870
H       -0.859416       -1.221846        0.058496
H        0.991956       -1.225199       -0.101028
6
  Step 25: 25.0 fs
C       -0.011809        0.630271       -0.023914
H        0.869609        1.196565        0.148535
H       -0.770978        1.332868        0.076213
C       -0.004597       -0.640547        0.008161
H       -0.899018       -1.235511        0.059290
H        0.995797       -1.171364       -0.096465
6
  Step 26: 26.0 fs
C       -0.010469        0.625629       -0.022898
H        0.929011        1.229636        0.142511
H       -0.808122        1.353622        0.076564
C       -0.003414       -0.643691        0.006956
H       -0.941865       -1.253572        0.058297
H        0.986357       -1.114421       -0.087550
6
  Step 27: 27.0 fs
C       -0.008026        0.625850       -0.020775
H        0.984506        1.254225        0.128540
H       -0.854218        1.369071        0.074760
C       -0.002598       -0.650355        0.005413
H       -0.975100       -1.268744        0.055076
H        0.971397       -1.062560       -0.075452
6
  Step 28: 28.0 fs
C       -0.004755        0.631645       -0.017497
H        1.023982        1.264517        0.106527
H       -0.896619        1.371571        0.070041
C       -0.003566       -0.659712        0.003684
H       -0.990829       -1.276965        0.049538
H        0.962637       -1.024699       -0.061629
6
  Step 29: 29.0 fs
C       -0.001014        0.642509       -0.013183
H        1.041207        1.258744        0.077629
H       -0.927133        1.358058        0.062328
C       -0.007204       -0.670405        0.001874
H       -0.986067       -1.277160        0.041888
H        0.969931       -1.007262       -0.047191
6
  Step 30: 30.0 fs
C        0.002892        0.657109       -0.008054
H        1.034262        1.237981        0.043667
H       -0.941862        1.329315        0.052003
C       -0.013230       -0.681023        0.000014
H       -0.962618       -1.270919        0.032568
H        0.993405       -1.011395       -0.032491
6
  Step 31: 31.0 fs
C        0.006664        0.673588       -0.002405
H        1.005703        1.206010        0.006809
H       -0.940845        1.289135        0.039751
C       -0.020110       -0.690270       -0.001898
H       -0.927640       -1.262719        0.022227
H        1.022973       -1.033544       -0.017552
6
  Step 32: 32.0 fs
C        0.009881        0.689709        0.003446
H        0.964302        1.169876       -0.030828
H       -0.928480        1.244012        0.026432
C       -0.025667       -0.696881       -0.003831
H       -0.893635       -1.259956        0.011633
H        1.045871       -1.068283       -0.002643
6
  Step 33: 33.0 fs
C        0.011859        0.703008        0.009248
H        0.926783        1.140107       -0.068022
H       -0.913717        1.202472        0.012832
C       -0.027919       -0.699764       -0.005710
H       -0.874542       -1.270660        0.001461
H        1.052801       -1.110281        0.011619
6
  Step 34: 34.0 fs
C        0.011884        0.711249        0.014916
H        0.913318        1.127904       -0.105283
H       -0.908252        1.173266       -0.000610
C       -0.025982       -0.698515       -0.007413
H       -0.876572       -1.297608       -0.007882
H        1.039465       -1.154905        0.024446
6
  Step 35: 35.0 fs
C        0.010032        0.713349        0.020437
H        0.931780        1.137700       -0.143515
H       -0.920417        1.161920       -0.013899
C       -0.020475       -0.693729       -0.008811
H       -0.893223       -1.334431       -0.016116
H        1.006302       -1.198513        0.035107
6
  Step 36: 36.0 fs
C        0.007328        0.709846        0.025580
H        0.969283        1.163850       -0.180887
H       -0.948571        1.167926       -0.027069
C       -0.012896       -0.686562       -0.009809
H       -0.912254       -1.369902       -0.022898
H        0.957944       -1.238821        0.043089
6
  Step 37: 37.0 fs
C        0.004686        0.702262        0.029893
H        1.005734        1.196636       -0.213205
H       -0.982109        1.185697       -0.039645
C       -0.004854       -0.678119       -0.010367
H       -0.924087       -1.394107       -0.027869
H        0.902578       -1.275394        0.048234
6
  Step 38: 38.0 fs
C        0.002432        0.692304        0.032931
H        1.026596        1.227955       -0.236531
H       -1.008704        1.208012       -0.050696
C        0.002255       -0.669226       -0.010483
H       -0.924127       -1.400729       -0.030781
H        0.850538       -1.309707        0.050725
6
  Step 39: 39.0 fs
C        0.000599        0.681526        0.034383
H        1.024703        1.252507       -0.248316
H       -1.019667        1.228683       -0.059230
C        0.007457       -0.660523       -0.010183
H       -0.912166       -1.387038       -0.031492
H        0.811319       -1.343914        0.050897
6
  Step 40: 40.0 fs
C       -0.000844        0.671272        0.034084
H        0.998399        1.267382       -0.247371
H       -1.011038        1.243355       -0.064461
C        0.010444       -0.652702       -0.009485
H       -0.891342       -1.353439       -0.029991
H        0.789798       -1.378075        0.048940
6
  Step 41: 41.0 fs
C       -0.001906        0.662607        0.032013
H        0.950294        1.271768       -0.233747
H       -0.983375        1.249741       -0.065932
C        0.011641       -0.646550       -0.008390
H       -0.867986       -1.303704       -0.026360
H        0.785277       -1.408661        0.044783
6
  Step 42: 42.0 fs
C       -0.002617        0.656165        0.028304
H        0.887636        1.267487       -0.208884
H       -0.941608        1.247772       -0.063572
C        0.012056       -0.642680       -0.006888
H       -0.851766       -1.245358       -0.020774
H        0.793470       -1.430130        0.038248
6
  Step 43: 43.0 fs
C       -0.003131        0.651861        0.023282
H        0.823852        1.260446       -0.175958
H       -0.895401        1.240102       -0.057778
C        0.012983       -0.641260       -0.004983
H       -0.854672       -1.188741       -0.013462
H        0.809042       -1.437686        0.029326
6
  Step 44: 44.0 fs
C       -0.003763        0.648754        0.017430
H        0.778232        1.261263       -0.139473
H       -0.858542        1.232175       -0.049363
C        0.015387       -0.642196       -0.002719
H       -0.885035       -1.142281       -0.004626
H        0.827076       -1.428891        0.018311
6
  Step 45: 45.0 fs
C       -0.004676        0.645649        0.011165
H        0.767738        1.280294       -0.102906
H       -0.844748        1.230243       -0.039208
C        0.019148       -0.645525       -0.000178
H       -0.939150       -1.107479        0.005530
H        0.843985       -1.404175        0.005782
6
  Step 46: 46.0 fs
C       -0.005378        0.642449        0.004606
H        0.792861        1.316838       -0.066431
H       -0.859674        1.236706       -0.027755
C        0.023083       -0.651302        0.002541
H       -1.002258       -1.080812        0.016592
H        0.858398       -1.366950       -0.007500
6
  Step 47: 47.0 fs
C       -0.005144        0.640454       -0.002241
H        0.838031        1.358397       -0.029106
H       -0.896504        1.247320       -0.015073
C        0.025708       -0.659181        0.005356
H       -1.057994       -1.059021        0.027892
H        0.871755       -1.323328       -0.020789
6
  Step 48: 48.0 fs
C       -0.003715        0.641112       -0.009225
H        0.885522        1.391514        0.008483
H       -0.941427        1.254729       -0.001437
C        0.025796       -0.668314        0.008199
H       -1.094733       -1.041093        0.038733
H        0.887865       -1.280880       -0.033542
6
  Step 49: 49.0 fs
C       -0.001253        0.645122       -0.016057
H        0.922943        1.407803        0.044506
H       -0.981432        1.253196        0.012472
C        0.022642       -0.677611        0.011014
H       -1.106429       -1.027727        0.048517
H        0.910389       -1.246043       -0.045446
6
  Step 50: 50.0 fs
C        0.001944        0.652362       -0.022402
H        0.943497        1.403851        0.076812
H       -1.007735        1.240280        0.025786
C        0.016295       -0.686088        0.013735
H       -1.091984       -1.020590        0.056802
H        0.939203       -1.221572       -0.056198
6
  Step 51: 51.0 fs
C        0.005589        0.662119       -0.027951
H        0.944575        1.379810        0.103495
H       -1.016029        1.216508        0.037675
C        0.007664       -0.692974        0.016251
H       -1.055390       -1.022108        0.063351
H        0.969208       -1.206420       -0.065203
6
  Step 52: 52.0 fs
C        0.009394        0.673240       -0.032465
H        0.927460        1.338918        0.123215
H       -1.006180        1.184766        0.047527
C       -0.001588       -0.697573        0.018407
H       -1.006853       -1.035720        0.068248
H        0.992792       -1.197818       -0.071601
6
  Step 53: 53.0 fs
C        0.012982        0.684172       -0.035822
H        0.898455        1.287960        0.135665
H       -0.982306        1.149984        0.055107
C       -0.009354       -0.699130        0.020023
H       -0.962751       -1.066142        0.071971
H        1.003562       -1.193269       -0.074616
6
  Step 54: 54.0 fs
C        0.015750        0.692994       -0.038100
H        0.870683        1.237891        0.142259
H       -0.953024        1.118863        0.060696
C       -0.013811       -0.696971        0.020942
H       -0.938995       -1.117713        0.075139
H        0.998410       -1.191253       -0.073782
6
  Step 55: 55.0 fs
C        0.016960        0.697721       -0.039582
H        0.862428        1.201878        0.146140
H       -0.930442        1.098998        0.065135
C       -0.014614       -0.690991        0.021105
H       -0.938010       -1.189257        0.077783
H        0.978263       -1.191307       -0.069045
6
  Step 56: 56.0 fs
C        0.016327        0.697188       -0.040531
H        0.885677        1.187791        0.149787
H       -0.925236        1.096551        0.069405
C       -0.013081       -0.681978        0.020583
H       -0.946898       -1.270973        0.079118
H        0.947976       -1.194018       -0.060792
6
  Step 57: 57.0 fs
C        0.014483        0.691824       -0.040867
H        0.933714        1.191995        0.152001
H       -0.939389        1.113297        0.073723
C       -0.011038       -0.671208        0.019518
H       -0.950543       -1.349390        0.078237
H        0.915371       -1.200919       -0.049752
6
  Step 58: 58.0 fs
C        0.012241        0.683299       -0.040253
H        0.987812        1.204339        0.149354
H       -0.964176        1.145545        0.077100
C       -0.009914       -0.659991        0.018050
H       -0.940128       -1.413159        0.074680
H        0.888963       -1.213782       -0.036758
6
  Step 59: 59.0 fs
C        0.009951        0.673636       -0.038407
H        1.031232        1.215810        0.139326
H       -0.986606        1.186377        0.078010
C       -0.010425       -0.649611        0.016295
H       -0.913287       -1.454931        0.068405
H        0.874483       -1.232842       -0.022443
6
  Step 60: 60.0 fs
C        0.007646        0.664689       -0.035242
H        1.053993        1.220838        0.121161
H       -0.996169        1.228652        0.075246
C       -0.012541       -0.641402        0.014339
H       -0.871951       -1.470990        0.059651
H        0.872588       -1.255283       -0.007167
6
  Step 61: 61.0 fs
C        0.005299        0.657930       -0.030834
H        1.052034        1.216831        0.095434
H       -0.987134        1.266628        0.068242
C       -0.015665       -0.636605        0.012252
H       -0.821234       -1.461156        0.048845
H        0.879941       -1.275721        0.008744
6
  Step 62: 62.0 fs
C        0.002917        0.654275       -0.025379
H        1.025849        1.203487        0.063581
H       -0.958437        1.296598        0.057031
C       -0.018854       -0.635920        0.010099
H       -0.769592       -1.429712        0.036554
H        0.892126       -1.288415        0.024787
6
  Step 63: 63.0 fs
C        0.000468        0.653896       -0.019148
H        0.980675        1.182843        0.027624
H       -0.913194        1.317127        0.042133
C       -0.020869       -0.639004        0.007935
H       -0.730041       -1.387454        0.023477
H        0.905660       -1.289317        0.040299
6
  Step 64: 64.0 fs
C       -0.002245        0.656083       -0.012463
H        0.928031        1.160014       -0.010123
H       -0.858860        1.329669        0.024437
C       -0.020230       -0.644396        0.005818
H       -0.719627       -1.351524        0.010253
H        0.918252       -1.276797        0.054568
6
  Step 65: 65.0 fs
C       -0.005640        0.659322       -0.005625
H        0.886145        1.143333       -0.047823
H       -0.807054        1.339062        0.005007
C       -0.015924       -0.650456        0.003839
H       -0.750765       -1.335746       -0.002833
H        0.928631       -1.251695        0.066928
6
  Step 66: 66.0 fs
C       -0.009994        0.661839        0.001178
H        0.873475        1.141075       -0.084942
H       -0.771391        1.352707       -0.015286
C       -0.008592       -0.656718        0.002097
H       -0.817377       -1.337024       -0.015612
H        0.936798       -1.217203        0.076851
6
  Step 67: 67.0 fs
C       -0.014787        0.662691        0.007818
H        0.894484        1.154284       -0.121253
H       -0.761150        1.376036       -0.036020
C       -0.000304       -0.663544        0.000635
H       -0.898064       -1.341013       -0.027438
H        0.944625       -1.178603        0.084081
6
  Step 68: 68.0 fs
C       -0.018919        0.662360        0.014016
H        0.935969        1.175363       -0.154720
H       -0.775207        1.406908       -0.056786
C        0.006786       -0.671003       -0.000563
H       -0.971813       -1.336513       -0.037410
H        0.955727       -1.142298        0.088741
6
  Step 69: 69.0 fs
C       -0.021631        0.662066        0.019347
H        0.979898        1.195060       -0.181993
H       -0.803999        1.436438       -0.076542
C        0.011197       -0.678701       -0.001525
H       -1.024851       -1.318997       -0.044784
H        0.973394       -1.113869        0.091132
6
  Step 70: 70.0 fs
C       -0.022710        0.662835        0.023393
H        1.012930        1.207233       -0.200172
H       -0.836424        1.455019       -0.093760
C        0.012314       -0.686101       -0.002260
H       -1.050027       -1.288435       -0.049090
H        0.997509       -1.096224        0.091404
6
  Step 71: 71.0 fs
C       -0.022205        0.665132        0.025863
H        1.027634        1.209119       -0.207516
H       -0.864158        1.456366       -0.107055
C        0.010323       -0.692685       -0.002737
H       -1.045202       -1.247451       -0.050135
H        1.023416       -1.089400        0.089365
6
  Step 72: 72.0 fs
C       -0.020239        0.668895        0.026605
H        1.021173        1.200455       -0.203397
H       -0.882492        1.438110       -0.115503
C        0.006031       -0.697899       -0.002897
H       -1.013230       -1.200890       -0.048034
H        1.043937       -1.091751        0.084660
6
  Step 73: 73.0 fs
C       -0.016988        0.673630        0.025614
H        0.994707        1.183019       -0.188231
H       -0.890031        1.401295       -0.118750
C        0.000766       -0.701011       -0.002671
H       -0.963826       -1.156404       -0.043253
H        1.052530       -1.101295        0.077072
6
  Step 74: 74.0 fs
C       -0.012772        0.678436        0.023047
H        0.954220        1.160978       -0.163623
H       -0.888702        1.350048       -0.117069
C       -0.003544       -0.701011       -0.001989
H       -0.916288       -1.125212       -0.036708
H        1.045269       -1.116412        0.066688
6
  Step 75: 75.0 fs
C       -0.008202        0.682001        0.019243
H        0.912252        1.141646       -0.132543
H       -0.884037        1.291346       -0.111401
C       -0.004743       -0.696830       -0.000802
H       -0.895570       -1.119737       -0.029545
H        1.021720       -1.136077        0.053941
6
  Step 76: 76.0 fs
C       -0.004162        0.682771        0.014668
H        0.887095        1.135114       -0.098689
H       -0.884771        1.234064       -0.103216
C       -0.002135       -0.688149        0.000842
H       -0.912526       -1.144431       -0.022320
H        0.985414       -1.160090        0.039576
6
  Step 77: 77.0 fs
C       -0.001249        0.679662        0.009686
H        0.892819        1.149469       -0.064381
H       -0.899430        1.186179       -0.093895
C        0.002515       -0.675973        0.002797
H       -0.951717       -1.189666       -0.014848
H        0.943486       -1.189282        0.024511
6
  Step 78: 78.0 fs
C        0.000939        0.673010        0.004407
H        0.925293        1.183499       -0.029519
H       -0.930568        1.151394       -0.083971
C        0.006709       -0.662021        0.004911
H       -0.989940       -1.240012       -0.007038
H        0.904381       -1.225095        0.009603
6
  Step 79: 79.0 fs
C        0.003258        0.664559       -0.001149
H        0.965993        1.227518        0.006180
H       -0.971854        1.128358       -0.073032
C        0.008888       -0.648137        0.007072
H       -1.012217       -1.283028        0.000871
H        0.873701       -1.267737       -0.004523
6
  Step 80: 80.0 fs
C        0.006101        0.656539       -0.006863
H        0.997143        1.270800        0.041642
H       -1.012077        1.113250       -0.060503
C        0.008671       -0.636241        0.009193
H       -1.012513       -1.310933        0.008506
H        0.851797       -1.314161       -0.017362
6
  Step 81: 81.0 fs
C        0.009382        0.650918       -0.012520
H        1.008151        1.305586        0.074924
H       -1.041036        1.102661       -0.046279
C        0.006419       -0.628218        0.011193
H       -0.990436       -1.319576        0.015514
H        0.835422       -1.358288       -0.028349
6
  Step 82: 82.0 fs
C        0.012848        0.649011       -0.017864
H        0.994826        1.327482        0.103993
H       -1.052397        1.094611       -0.030748
C        0.002782       -0.625498        0.012999
H       -0.949511       -1.307832        0.021594
H        0.821238       -1.393553       -0.036889
6
  Step 83: 83.0 fs
C        0.016250        0.651266       -0.022650
H        0.957702        1.334952        0.127156
H       -1.044132        1.088542       -0.014591
C       -0.001441       -0.628541        0.014538
H       -0.897550       -1.278161        0.026530
H        0.807902       -1.415239       -0.042480
6
  Step 84: 84.0 fs
C        0.019338        0.657153       -0.026671
H        0.901792        1.329507        0.143398
H       -1.018356        1.085118        0.001419
C       -0.005109       -0.636494        0.015737
H       -0.848830       -1.238473        0.030240
H        0.796231       -1.421457       -0.044853
6
  Step 85: 85.0 fs
C        0.021727        0.665187       -0.029824
H        0.838025        1.317040        0.153025
H       -0.981436        1.086098        0.016578
C       -0.006582       -0.647224        0.016518
H       -0.825261       -1.203058        0.032862
H        0.788597       -1.413269       -0.044011
6
  Step 86: 86.0 fs
C        0.022807        0.673142       -0.032196
H        0.784146        1.308940        0.158355
H       -0.943729        1.094168        0.030436
C       -0.004454       -0.658241        0.016807
H       -0.846831       -1.185491        0.034664
H        0.788149       -1.394349       -0.040207
6
  Step 87: 87.0 fs
C        0.021987        0.678684       -0.034028
H        0.759758        1.318786        0.163083
H       -0.917410        1.112253        0.042861
C        0.000697       -0.668194        0.016595
H       -0.910404       -1.184926        0.035562
H        0.798229       -1.370316       -0.033913
6
  Step 88: 88.0 fs
C        0.019429        0.680635       -0.035409
H        0.771971        1.350688        0.168666
H       -0.910767        1.141659        0.053811
C        0.006498       -0.676863        0.015931
H       -0.990907       -1.189469        0.035109
H        0.821262       -1.347081       -0.025653
6
  Step 89: 89.0 fs
C        0.016072        0.679640       -0.036048
H        0.809367        1.393526        0.172191
H       -0.922674        1.179932        0.062806
C        0.010824       -0.684234        0.014874
H       -1.063392       -1.189773        0.032974
H        0.856716       -1.328268       -0.015834
6
  Step 90: 90.0 fs
C        0.012684        0.677216       -0.035545
H        0.854408        1.431482        0.169681
H       -0.943874        1.221045        0.068812
C        0.012716       -0.690312        0.013467
H       -1.112429       -1.182175        0.029120
H        0.899732       -1.313689       -0.004718
6
  Step 91: 91.0 fs
C        0.009527        0.674705       -0.033654
H        0.893795        1.453258        0.158913
H       -0.963407        1.258039        0.070762
C        0.012149       -0.695158        0.011751
H       -1.130536       -1.166514        0.023729
H        0.942334       -1.300523        0.007415
6
  Step 92: 92.0 fs
C        0.006639        0.672934       -0.030334
H        0.919878        1.453194        0.139517
H       -0.973259        1.285470        0.068040
C        0.009560       -0.698777        0.009777
H       -1.115664       -1.144492        0.017087
H        0.976454       -1.285712        0.020147
6
  Step 93: 93.0 fs
C        0.004054        0.672252       -0.025696
H        0.929200        1.429724        0.112323