6
  Step 0: 0.0 fs
C       -0.000001        0.665096       -0.000002
H        0.925310        1.240812        0.000018
H       -0.925307        1.240819        0.000005
C        0.000001       -0.665095       -0.000000
H       -0.925316       -1.240827        0.000011
H        0.925308       -1.240819       -0.000002
6
  Step 1: 1.0 fs
C        0.003049        0.673560       -0.004601
H        0.829822        1.218501        0.028245
H       -0.913108        1.269179        0.005052
C        0.006103       -0.675450        0.003176
H       -0.940795       -1.206243        0.003429
H        0.915101       -1.258925       -0.019764
6
  Step 2: 2.0 fs
C        0.003138        0.679428       -0.009114
H        0.773581        1.219309        0.056599
H       -0.902084        1.294527        0.009879
C        0.011781       -0.684570        0.006228
H       -0.956451       -1.174236        0.006638
H        0.907314       -1.278360       -0.038758
6
  Step 3: 3.0 fs
C       -0.001745        0.680740       -0.013626
H        0.784476        1.261068        0.087379
H       -0.893788        1.314392        0.014166
C        0.016676       -0.691574        0.009040
H       -0.971681       -1.146717        0.009356
H        0.903193       -1.299730       -0.056298
6
  Step 4: 4.0 fs
C       -0.009473        0.678601       -0.017922
H        0.840891        1.328008        0.119212
H       -0.889743        1.327198        0.017600
C        0.020547       -0.696060        0.011507
H       -0.985130       -1.125003        0.011321
H        0.902103       -1.322302       -0.071745
6
  Step 5: 5.0 fs
C       -0.016794        0.675239       -0.021511
H        0.906456        1.392998        0.147067
H       -0.890565        1.332153        0.019988
C        0.023293       -0.698012        0.013535
H       -0.995133       -1.109904        0.012375
H        0.901822       -1.344057       -0.084460
6
  Step 6: 6.0 fs
C       -0.021839        0.672025       -0.024032
H        0.959636        1.440023        0.167130
H       -0.895827        1.329041        0.021269
C        0.024928       -0.697628        0.015040
H       -1.000278       -1.101783        0.012471
H        0.899646       -1.362405       -0.093807
6
  Step 7: 7.0 fs
C       -0.023855        0.669588       -0.025311
H        0.990983        1.462558        0.177559
H       -0.904569        1.318102        0.021466
C        0.025518       -0.695198        0.015955
H       -0.999825       -1.100646        0.011635
H        0.893564       -1.375052       -0.099258
6
  Step 8: 8.0 fs
C       -0.022621        0.668216       -0.025283
H        0.996738        1.458602        0.177654
H       -0.915745        1.299939        0.020639
C        0.025131       -0.691032        0.016235
H       -0.993914       -1.106207        0.009939
H        0.882990       -1.380624       -0.100501
6
  Step 9: 9.0 fs
C       -0.018200        0.668037       -0.023950
H        0.976060        1.428464        0.167390
H       -0.928415        1.275467        0.018860
C        0.023812       -0.685424        0.015868
H       -0.983533       -1.117912        0.007471
H        0.869014       -1.378958       -0.097498
6
  Step 10: 10.0 fs
C       -0.010925        0.669019       -0.021379
H        0.930973        1.374745        0.147410
H       -0.941725        1.245862        0.016213
C        0.021566       -0.678635        0.014873
H       -0.970298       -1.134932        0.004336
H        0.854288       -1.371127       -0.090493
6
  Step 11: 11.0 fs
C       -0.001638        0.670776       -0.017742
H        0.869065        1.304423        0.119464
H       -0.954754        1.212559        0.012794
C        0.018369       -0.670916        0.013293
H       -0.956060       -1.156133        0.000653
H        0.842477       -1.359124       -0.079942
6
  Step 12: 12.0 fs
C        0.007727        0.672154       -0.013390
H        0.810267        1.233683        0.087274
H       -0.966352        1.177341        0.008735
C        0.014214       -0.662564        0.011190
H       -0.942447       -1.180035       -0.003423
H        0.837208       -1.345116       -0.066393
6
  Step 13: 13.0 fs
C        0.013749        0.671015       -0.008824
H        0.791779        1.190486        0.056046
H       -0.975225        1.142511        0.004235
C        0.009190       -0.654022        0.008637
H       -0.930495       -1.204833       -0.007676
H        0.840738       -1.330435       -0.050375
6
  Step 14: 14.0 fs
C        0.013934        0.666067       -0.004287
H        0.840097        1.193710        0.027577
H       -0.980653        1.111032       -0.000463
C        0.003537       -0.646008        0.005725
H       -0.920536       -1.228590       -0.011831
H        0.852980       -1.314922       -0.032402
6
  Step 15: 15.0 fs
C        0.010322        0.659162        0.000318
H        0.929159        1.226659       -0.000504
H       -0.983424        1.086436       -0.005146
C       -0.002342       -0.639535        0.002565
H       -0.912373       -1.249534       -0.015616
H        0.871530       -1.297172       -0.013072
6
  Step 16: 16.0 fs
C        0.006260        0.652931        0.004932
H        1.018139        1.264004       -0.028499
H       -0.985286        1.072170       -0.009708
C       -0.007941       -0.635648       -0.000716
H       -0.905635       -1.266292       -0.018848
H        0.892701       -1.275577        0.006862
6
  Step 17: 17.0 fs
C        0.003605        0.648980        0.009351
H        1.083494        1.291536       -0.054799
H       -0.987443        1.070656       -0.014129
C       -0.012752       -0.635091       -0.003988
H       -0.900127       -1.278124       -0.021455
H        0.912881       -1.249351        0.026526
6
  Step 18: 18.0 fs
C        0.002962        0.648017        0.013372
H        1.115466        1.303426       -0.077629
H       -0.989449        1.082616       -0.018400
C       -0.016364       -0.638092       -0.007118
H       -0.896027       -1.285106       -0.023437
H        0.929478       -1.219024        0.045006
6
  Step 19: 19.0 fs
C        0.004291        0.650166        0.016813
H        1.111034        1.297800       -0.095509
H       -0.989144        1.106934       -0.022444
C       -0.018531       -0.644290       -0.009983
H       -0.893901       -1.288113       -0.024827
H        0.941448       -1.186490        0.061459
6
  Step 20: 20.0 fs
C        0.007236        0.655117        0.019512
H        1.071005        1.274955       -0.107295
H       -0.983592        1.141027       -0.026094
C       -0.019200       -0.652816       -0.012474
H       -0.894473       -1.288567       -0.025646
H        0.949395       -1.154706        0.075239
6
  Step 21: 21.0 fs
C        0.011182        0.662175        0.021341
H        1.000507        1.237582       -0.112339
H       -0.970366        1.181501       -0.029125
C       -0.018521       -0.662494       -0.014506
H       -0.898188       -1.288005       -0.025877
H        0.955300       -1.127165        0.085968
6
  Step 22: 22.0 fs
C        0.014976        0.670159        0.022271
H        0.913210        1.193058       -0.111165
H       -0.948524        1.224831       -0.031302
C       -0.016805       -0.672091       -0.016021
H       -0.904750       -1.287598       -0.025455
H        0.961709       -1.107174        0.093505
6
  Step 23: 23.0 fs
C        0.016316        0.677125        0.022503
H        0.838882        1.157675       -0.106890
H       -0.919124        1.267914       -0.032420
C       -0.014422       -0.680532       -0.016978
H       -0.912905       -1.287864       -0.024287
H        0.970451       -1.097041        0.097816
6
  Step 24: 24.0 fs
C        0.012039        0.680597        0.022483
H        0.819999        1.154583       -0.105255
H       -0.885328        1.308592       -0.032339
C       -0.011673       -0.687049       -0.017354
H       -0.920709       -1.288715       -0.022292
H        0.981533       -1.097528        0.098819
6
  Step 25: 25.0 fs
C        0.001783        0.679774        0.022331
H        0.867829        1.188550       -0.107714
H       -0.852037        1.346016       -0.031061
C       -0.008733       -0.691271       -0.017133
H       -0.926090       -1.289772       -0.019465
H        0.992895       -1.107770        0.096353
6
  Step 26: 26.0 fs
C       -0.010797        0.676301        0.021630
H        0.946490        1.237177       -0.108916
H       -0.824411        1.380358       -0.028729
C       -0.005667       -0.693186       -0.016316
H       -0.927453       -1.290692       -0.015901
H        1.001246       -1.125668        0.090273
6
  Step 27: 27.0 fs
C       -0.022318        0.671875        0.020084
H        1.021336        1.279598       -0.104728
H       -0.805635        1.411607       -0.025512
C       -0.002475       -0.692973       -0.014925
H       -0.924093       -1.291314       -0.011761
H        1.003442       -1.148536        0.080573
6
  Step 28: 28.0 fs
C       -0.031096        0.667515        0.017657
H        1.074828        1.305638       -0.094096
H       -0.795999        1.438412       -0.021516
C        0.000837       -0.690906       -0.013007
H       -0.916323       -1.291702       -0.007232
H        0.997611       -1.173699        0.067477
6
  Step 29: 29.0 fs
C       -0.036520        0.663907        0.014437
H        1.099907        1.311595       -0.077524
H       -0.793731        1.458045       -0.016761
C        0.004214       -0.687296       -0.010631
H       -0.905392       -1.292111       -0.002490
H        0.983701       -1.198904        0.051453
6
  Step 30: 30.0 fs
C       -0.038444        0.661594        0.010569
H        1.094264        1.296719       -0.056109
H       -0.796491        1.467419       -0.011276
C        0.007513       -0.682470       -0.007890
H       -0.893195       -1.292861        0.002317
H        0.963530       -1.222562        0.033164
6
  Step 31: 31.0 fs
C       -0.036914        0.660954        0.006227
H        1.058346        1.262020       -0.031236
H       -0.802555        1.464285       -0.005162
C        0.010497       -0.676760       -0.004887
H       -0.881849       -1.294132        0.007074
H        0.940413       -1.243819        0.013371
6
  Step 32: 32.0 fs
C       -0.032186        0.662077        0.001615
H        0.996066        1.210696       -0.004549
H       -0.811316        1.447928        0.001409
C        0.012857       -0.670500       -0.001731
H       -0.873195       -1.295747        0.011689
H        0.918393       -1.262427       -0.007169
6
  Step 33: 33.0 fs
C       -0.025055        0.664553       -0.003043
H        0.918672        1.150264        0.022182
H       -0.823242        1.419346        0.008219
C        0.014281       -0.664059        0.001470
H       -0.868399       -1.297054        0.016063
H        0.901052       -1.278277       -0.027743
6
  Step 34: 34.0 fs
C       -0.017550        0.667162       -0.007570
H        0.852304        1.096286        0.047861
H       -0.839386        1.381012        0.015033
C        0.014543       -0.657862        0.004603
H       -0.867807       -1.296995        0.020068
H        0.890483       -1.290859       -0.047630
6
  Step 35: 35.0 fs
C       -0.012988        0.668019       -0.011989
H        0.837598        1.071267        0.073866
H       -0.860624        1.336322        0.021637
C        0.013583       -0.652396        0.007538
H       -0.871080       -1.294377        0.023522
H        0.886811       -1.299055       -0.066020
6
  Step 36: 36.0 fs
C       -0.012737        0.666357       -0.016382
H        0.890504        1.084655        0.102226
H       -0.887187        1.289003        0.027890
C        0.011518       -0.648200        0.010138
H       -0.877530       -1.288274        0.026246
H        0.888505       -1.301394       -0.082027
6
  Step 37: 37.0 fs
C       -0.014088        0.663523       -0.020423
H        0.976603        1.121507        0.129873
H       -0.918470        1.242613        0.033765
C        0.008616       -0.645793        0.012279
H       -0.886441       -1.278330        0.028142
H        0.893239       -1.296713       -0.094812
6
  Step 38: 38.0 fs
C       -0.014213        0.661084       -0.023652
H        1.057457        1.164449        0.151809
H       -0.952265        1.199737        0.039291
C        0.005229       -0.645494        0.013861
H       -0.897271       -1.264832        0.029215
H        0.898822       -1.284786       -0.103731
6
  Step 39: 39.0 fs
C       -0.011974        0.659946       -0.025776
H        1.112495        1.203469        0.164998
H       -0.984634        1.161732        0.044372
C        0.001705       -0.647323        0.014818
H       -0.909680       -1.248644        0.029520
H        0.903864       -1.266655       -0.108415
6
  Step 40: 40.0 fs
C       -0.007313        0.660482       -0.026648
H        1.133190        1.233570        0.168214
H       -1.010850        1.129269        0.048757
C       -0.001692       -0.650989        0.015118
H       -0.923430       -1.231053        0.029108
H        0.908078       -1.244618       -0.108800
6
  Step 41: 41.0 fs
C       -0.000596        0.662700       -0.026206
H        1.116948        1.252255        0.161239
H       -1.026796        1.102927        0.052150
C       -0.004816       -0.655946        0.014761
H       -0.938181       -1.213511        0.028006
H        0.912222       -1.221894       -0.105123
6
  Step 42: 42.0 fs
C        0.007663        0.666321       -0.024456
H        1.064945        1.258680        0.144509
H       -1.029998        1.083520        0.054312
C       -0.007625       -0.661497        0.013772
H       -0.953290       -1.197371        0.026219
H        0.917627       -1.202053       -0.097830
6
  Step 43: 43.0 fs
C        0.016773        0.670770       -0.021489
H        0.983034        1.254265        0.119259
H       -1.020155        1.072060        0.055102
C       -0.010114       -0.666925        0.012195
H       -0.967721       -1.183676        0.023751
H        0.925302       -1.188212       -0.087449
6
  Step 44: 44.0 fs
C        0.025502        0.675005       -0.017535
H        0.886164        1.245520        0.088027
H       -0.999375        1.069583        0.054496
C       -0.012224       -0.671605        0.010085
H       -0.980149       -1.173073        0.020647
H        0.934995       -1.182290       -0.074466
6
  Step 45: 45.0 fs
C        0.031602        0.677171       -0.012986
H        0.804117        1.248852        0.054857
H       -0.972225        1.076916        0.052597
C       -0.013778       -0.675071        0.007514
H       -0.989251       -1.165822        0.017033
H        0.944855       -1.184720       -0.059337
6
  Step 46: 46.0 fs
C        0.032553        0.674968       -0.008190
H        0.772357        1.287316        0.022822
H       -0.945368        1.094514        0.049661
C       -0.014510       -0.677071        0.004574
H       -0.994058       -1.161922        0.013157
H        0.951951       -1.194645       -0.042598
6
  Step 47: 47.0 fs
C        0.028735        0.668231       -0.003181
H        0.793101        1.361684       -0.009051
H       -0.925952        1.122257        0.046059
C       -0.014171       -0.677640        0.001381
H       -0.994195       -1.161298        0.009357
H        0.953351       -1.210379       -0.024945
6
  Step 48: 48.0 fs
C        0.023069        0.659520        0.001993
H        0.836219        1.444530       -0.041541
H       -0.917985        1.158757        0.042100
C       -0.012632       -0.677093       -0.001936
H       -0.989940       -1.163891        0.005967
H        0.947146       -1.229913       -0.007198
6
  Step 49: 49.0 fs
C        0.017579        0.651485        0.007102
H        0.877244        1.511344       -0.072971
H       -0.919687        1.200322        0.037884
C       -0.009920       -0.675880       -0.005250
H       -0.982114       -1.169566        0.003232
H        0.933068       -1.251394        0.009790
6
  Step 50: 50.0 fs
C        0.012896        0.645945        0.011893
H        0.904699        1.549736       -0.101091
H       -0.925244        1.241268        0.033421
C       -0.006223       -0.674439       -0.008438
H       -0.971883       -1.178008        0.001304
H        0.912665       -1.273473        0.025226
6
  Step 51: 51.0 fs
C        0.009039        0.644008        0.016146
H        0.914386        1.555032       -0.124040
H       -0.928663        1.275683        0.028809
C       -0.001863       -0.673098       -0.011398
H       -0.960522       -1.188651        0.000247
H        0.889048       -1.295443        0.038448
6
  Step 52: 52.0 fs
C        0.005947        0.646174        0.019673
H        0.905421        1.526486       -0.140388
H       -0.926278        1.299105        0.024279
C        0.002747       -0.672005       -0.014042
H       -0.949215       -1.200665        0.000072
H        0.866238       -1.317101        0.048980
6
  Step 53: 53.0 fs
C        0.003616        0.652327        0.022323
H        0.879271        1.466248       -0.149164
H       -0.917339        1.309266        0.020139
C        0.007176       -0.671137       -0.016295
H       -0.938891       -1.212989        0.000758
H        0.848135       -1.338299        0.056496
6
  Step 54: 54.0 fs
C        0.001981        0.661620        0.024008
H        0.841050        1.380572       -0.150218
H       -0.903980        1.306463        0.016709
C        0.011066       -0.670356       -0.018089
H       -0.930137       -1.224460        0.002276
H        0.837384       -1.358287        0.060752
6
  Step 55: 55.0 fs
C        0.000520        0.672255        0.024806
H        0.803905        1.283285       -0.145273
H       -0.890783        1.293595        0.014246
C        0.014178       -0.669511       -0.019353
H       -0.923196       -1.233978        0.004591
H        0.834738       -1.375301        0.061495
6
  Step 56: 56.0 fs
C       -0.002278        0.681441        0.025078
H        0.794145        1.197983       -0.139250
H       -0.883656        1.275754        0.012869
C        0.016384       -0.668505       -0.020018
H       -0.918036       -1.240716        0.007652
H        0.839243       -1.386769        0.058474
6
  Step 57: 57.0 fs
C       -0.008068        0.686664        0.025263
H        0.839260        1.145666       -0.137677
H       -0.887873        1.258952        0.012505
C        0.017624       -0.667349       -0.020034
H       -0.914496       -1.244317        0.011356
H        0.848976       -1.390002        0.051543
6
  Step 58: 58.0 fs
C       -0.015749        0.687793        0.025248
H        0.930600        1.122664       -0.139087
H       -0.905584        1.247926        0.012925
C        0.017868       -0.666153       -0.019384
H       -0.912422       -1.244995        0.015539
H        0.861822       -1.382969        0.040792
6
  Step 59: 59.0 fs
C       -0.022386        0.686120        0.024585
H        1.031918        1.113268       -0.137762
H       -0.933957        1.244157        0.013916
C        0.017128       -0.665026       -0.018096
H       -0.911743       -1.243416        0.020005
H        0.876030       -1.364869        0.026576
6
  Step 60: 60.0 fs
C       -0.026216        0.682778        0.023037
H        1.115200        1.107841       -0.130425
H       -0.965566        1.245652        0.015399
C        0.015457       -0.663993       -0.016236
H       -0.912424       -1.240488        0.024585
H        0.890529       -1.336374        0.009465
6
  Step 61: 61.0 fs
C       -0.026863        0.678597        0.020595
H        1.166538        1.102621       -0.116484
H       -0.991520        1.248833        0.017407
C        0.012914       -0.663008       -0.013896
H       -0.914347       -1.237204        0.029157
H        0.905053       -1.299556       -0.009849
6
  Step 62: 62.0 fs
C       -0.024557        0.674201        0.017365
H        1.180418        1.096470       -0.096614
H       -1.004721        1.250600        0.019983
C        0.009537       -0.662000       -0.011182
H       -0.917209       -1.234530        0.033632
H        0.919985       -1.257502       -0.030631
6
  Step 63: 63.0 fs
C       -0.019676        0.670065        0.013503
H        1.155797        1.089351       -0.072022
H       -1.001217        1.249208        0.023161
C        0.005368       -0.660928       -0.008204
H       -0.920479       -1.233306        0.037925
H        0.935881       -1.213725       -0.052168
6
  Step 64: 64.0 fs
C       -0.012655        0.666484        0.009204
H        1.095489        1.082119       -0.044272
H       -0.980537        1.244510        0.026968
C        0.000505       -0.659818       -0.005077
H       -0.923457       -1.234177        0.041927
H        0.952785       -1.171499       -0.073766
6
  Step 65: 65.0 fs
C       -0.004195        0.663464        0.004701
H        1.008677        1.077388       -0.015285
H       -0.945798        1.238000        0.031445
C       -0.004834       -0.658771       -0.001928
H       -0.925416       -1.237532        0.045494
H        0.969640       -1.133410       -0.094676
6
  Step 66: 66.0 fs
C        0.004271        0.660486        0.000238
H        0.916486        1.081843        0.012914
H       -0.903760        1.232733        0.036702
C       -0.010295       -0.657920        0.001101
H       -0.925770       -1.243475        0.048435
H        0.984377       -1.101331       -0.114003
6
  Step 67: 67.0 fs
C        0.010305        0.656306       -0.004032
H        0.854620        1.108697        0.039382
H       -0.864374        1.232970        0.042924
C       -0.015433       -0.657388        0.003858
H       -0.924207       -1.251809        0.050523
H        0.994610       -1.076643       -0.130758
6
  Step 68: 68.0 fs
C        0.012251        0.649863       -0.008115
H        0.849747        1.168927        0.064998
H       -0.838077        1.242668        0.050325
C       -0.019788       -0.657311        0.006194
H       -0.920766       -1.262114        0.051535
H        0.998425       -1.060455       -0.143991
6
  Step 69: 69.0 fs
C        0.011631        0.642248       -0.011887
H        0.886641        1.251543        0.089089
H       -0.830883        1.262985        0.058916
C       -0.023003       -0.657923        0.007993
H       -0.915802       -1.273857        0.051345
H        0.995023       -1.053681       -0.152992
6
  Step 70: 70.0 fs
C        0.010704        0.636017       -0.014999
H        0.933861        1.333283        0.108503
H       -0.840490        1.290155        0.068195
C       -0.024894       -0.659505        0.009184
H       -0.909880       -1.286413        0.049966
H        0.985037       -1.057002       -0.157429
6
  Step 71: 71.0 fs
C        0.010348        0.633329       -0.017126
H        0.971487        1.397373        0.120620
H       -0.858788        1.316957        0.077168
C       -0.025464       -0.662230        0.009739
H       -0.903667       -1.299051        0.047533
H        0.970509       -1.070808       -0.157375
6
  Step 72: 72.0 fs
C        0.010547        0.635337       -0.018069
H        0.990753        1.435517        0.124246
H       -0.877304        1.336340        0.084755
C       -0.024859       -0.666033        0.009667
H       -0.897872       -1.310925        0.044248
H        0.954398       -1.095082       -0.153221
6
  Step 73: 73.0 fs
C        0.011097        0.642229       -0.017741
H        0.988562        1.444522        0.119136
H       -0.890282        1.343714        0.090137
C       -0.023286       -0.670584        0.008998
H       -0.893222       -1.321099        0.040334
H        0.939620       -1.129150       -0.145506
6
  Step 74: 74.0 fs
C        0.011875        0.653413       -0.016149
H        0.964845        1.424277        0.105657
H       -0.895275        1.337388        0.092898
C       -0.020909       -0.675364        0.007762
H       -0.890402       -1.328583        0.035998
H        0.927943       -1.171335       -0.134699
6
  Step 75: 75.0 fs
C        0.012803        0.667640       -0.013393
H        0.922711        1.377833        0.084765
H       -0.893077        1.318474        0.093044
C       -0.017795       -0.679802        0.005990
H       -0.889951       -1.332386        0.031432
H        0.919300       -1.218737       -0.121110
6
  Step 76: 76.0 fs
C        0.013592        0.682978       -0.009690
H        0.871308        1.313578        0.058210
H       -0.887565        1.290655        0.091014
C       -0.013937       -0.683388        0.003723
H       -0.892146       -1.331573        0.026816
H        0.912057       -1.267390       -0.104994
6
  Step 77: 77.0 fs
C        0.013233        0.696697       -0.005372
H        0.831099        1.248653        0.028548
H       -0.885105        1.259646        0.087603
C       -0.009334       -0.685746        0.001022
H       -0.896930       -1.325356        0.022343
H        0.904049       -1.312943       -0.086710
6
  Step 78: 78.0 fs
C        0.009943        0.705730       -0.000748
H        0.832569        1.206257       -0.002226
H       -0.892549        1.231811        0.083732
C       -0.004073       -0.686665       -0.002015
H       -0.903945       -1.313229        0.018236
H        0.893557       -1.351449       -0.066850
6
  Step 79: 79.0 fs
C        0.003241        0.708599        0.004072
H        0.887979        1.195876       -0.034354
H       -0.913731        1.211868        0.079987
C        0.001628       -0.686112       -0.005258
H       -0.912643       -1.295113        0.014733
H        0.879944       -1.379983       -0.046242
6
  Step 80: 80.0 fs
C       -0.004583        0.706300        0.008970
H        0.970949        1.204343       -0.067463
H       -0.946737        1.201167        0.076345
C        0.007427       -0.684183       -0.008557
H       -0.922411       -1.271438        0.012024
H        0.863851       -1.397019       -0.025833
6
  Step 81: 81.0 fs
C       -0.011164        0.700480        0.013688
H        1.048336        1.216451       -0.098949
H       -0.984083        1.197655        0.072284
C        0.012908       -0.680990       -0.011756
H       -0.932676       -1.243111        0.010196
H        0.847169       -1.402655       -0.006541
6
  Step 82: 82.0 fs
C       -0.015496        0.692472        0.017966
H        1.100652        1.224203       -0.126002
H       -1.016193        1.197638        0.067216
C        0.017611       -0.676630       -0.014719
H       -0.942945       -1.211476        0.009242
H        0.832794       -1.398575        0.010871
6
  Step 83: 83.0 fs
C       -0.017392        0.683328        0.021595
H        1.119489        1.224475       -0.146556
H       -1.035203        1.197715        0.060823
C        0.021084       -0.671222       -0.017330
H       -0.952811       -1.178276        0.009096
H        0.824057       -1.387637        0.025845
6
  Step 84: 84.0 fs
C       -0.016932        0.673959        0.024410
H        1.102588        1.216524       -0.159238
H       -1.036571        1.195666        0.053104
C        0.022953       -0.664992       -0.019503
H       -0.961938       -1.145582        0.009673
H        0.823721       -1.372958        0.038022
6
  Step 85: 85.0 fs
C       -0.014246        0.665166        0.026281
H        1.051649        1.201053       -0.163262
H       -1.019446        1.190697        0.044316
C        0.023024       -0.658355       -0.021165
H       -0.970065       -1.115671        0.010891
H        0.832834       -1.356749        0.047122
6
  Step 86: 86.0 fs
C       -0.009587        0.657543        0.027147
H        0.973263        1.180740       -0.158683
H       -0.986775        1.183541        0.034900
C        0.021342       -0.651949       -0.022253
H       -0.977017       -1.090843        0.012689
H        0.850042       -1.339613        0.052821
6
  Step 87: 87.0 fs
C       -0.003654        0.651209        0.027084
H        0.882691        1.162303       -0.147216
H       -0.945401        1.176524        0.025411
C        0.018176       -0.646538       -0.022713
H       -0.982696       -1.073195        0.015018
H        0.871959       -1.320819        0.054734
6
  Step 88: 88.0 fs
C        0.001971        0.645443        0.026412
H        0.808500        1.159707       -0.133325
H       -0.905731        1.173435        0.016415
C        0.013934       -0.642846       -0.022504
H       -0.987040       -1.064326        0.017821
H        0.894360       -1.299304        0.052544
6
  Step 89: 89.0 fs
C        0.005334        0.638997        0.025576
H        0.783529        1.190798       -0.122649
H       -0.879058        1.178302        0.008390
C        0.009068       -0.641422       -0.021621
H       -0.989950       -1.065131        0.020986
H        0.913455       -1.274650        0.046176
6
  Step 90: 90.0 fs
C        0.006533        0.632115        0.024600
H        0.811128        1.255993       -0.115380
H       -0.872509        1.193067        0.001638
C        0.003984       -0.642633       -0.020106
H       -0.991218       -1.075766        0.024312
H        0.926831       -1.247596        0.035911
6
  Step 91: 91.0 fs
C        0.007493        0.627143        0.023117
H        0.863679        1.333013       -0.106750
H       -0.884512        1.215389       -0.003611
C       -0.001038       -0.646644       -0.018038
H       -0.990492       -1.095675        0.027533
H        0.933910       -1.220083        0.022353
6
  Step 92: 92.0 fs
C        0.009350        0.626361        0.020894
H        0.915767        1.400007       -0.093646
H       -0.906420        1.239433       -0.007108
C       -0.005872       -0.653267       -0.015514
H       -0.987295       -1.123654        0.030394
H        0.935979       -1.194956        0.006300
6
  Step 93: 93.0 fs
C        0.012141        0.630818        0.017917
H        0.953770        1.444719       -0.075609