6
  Step 0: 0.0 fs
C       -0.000000        0.665090       -0.000002
H        0.925310        1.240818        0.000009
H       -0.925303        1.240816        0.000009
C       -0.000001       -0.665091        0.000001
H       -0.925305       -1.240816       -0.000002
H        0.925313       -1.240805       -0.000002
6
  Step 1: 1.0 fs
C       -0.006042        0.653228        0.000273
H        0.966320        1.277840       -0.012046
H       -0.938964        1.327502        0.023803
C        0.010984       -0.663081       -0.005159
H       -0.965500       -1.272129        0.005288
H        0.879293       -1.215896        0.041136
6
  Step 2: 2.0 fs
C       -0.011768        0.643915        0.000543
H        0.993324        1.304117       -0.023386
H       -0.940360        1.400975        0.046342
C        0.018915       -0.661333       -0.010185
H       -0.991622       -1.294474        0.010277
H        0.853556       -1.203233        0.081577
6
  Step 3: 3.0 fs
C       -0.016941        0.638830        0.000813
H        0.999999        1.313949       -0.033197
H       -0.924439        1.452443        0.066172
C        0.021941       -0.659958       -0.015053
H       -0.996933       -1.303504        0.014522
H        0.861824       -1.211330        0.122047
6
  Step 4: 4.0 fs
C       -0.021338        0.638832        0.001092
H        0.985047        1.305197       -0.040775
H       -0.891158        1.477321        0.082036
C        0.020352       -0.659725       -0.019614
H       -0.979897       -1.298145        0.017617
H        0.897721       -1.235627        0.161668
6
  Step 5: 5.0 fs
C       -0.024744        0.643934        0.001380
H        0.951105        1.278603       -0.045632
H       -0.844180        1.474826        0.093075
C        0.015810       -0.661572       -0.023507
H       -0.943195       -1.280103        0.019310
H        0.942612       -1.263336        0.196711
6
  Step 6: 6.0 fs
C       -0.026990        0.653142        0.001662
H        0.905490        1.238155       -0.047615
H       -0.791174        1.448694        0.099052
C        0.010184       -0.665631       -0.026364
H       -0.894683       -1.254620        0.019653
H        0.980435       -1.283553        0.223036
6
  Step 7: 7.0 fs
C       -0.028050        0.664242        0.001887
H        0.862525        1.192368       -0.047112
H       -0.745285        1.409205        0.100691
C        0.005374       -0.670928       -0.027970
H       -0.849215       -1.231711        0.019201
H        1.001920       -1.290277        0.237787
6
  Step 8: 8.0 fs
C       -0.028048        0.673954        0.001953
H        0.843546        1.153992       -0.045068
H       -0.725390        1.373989        0.099946
C        0.003297       -0.675788       -0.028275
H       -0.826713       -1.224774        0.018940
H        1.003211       -1.281406        0.239596
6
  Step 9: 9.0 fs
C       -0.027060        0.679409        0.001748
H        0.865920        1.133640       -0.042325
H       -0.747696        1.359664        0.098880
C        0.004909       -0.678895       -0.027320
H       -0.839154       -1.241782        0.019489
H        0.984617       -1.257676        0.228429
6
  Step 10: 10.0 fs
C       -0.024987        0.680388        0.001278
H        0.924825        1.130959       -0.038618
H       -0.809048        1.365698        0.097213
C        0.009118       -0.680167       -0.025181
H       -0.877841       -1.276639        0.020313
H        0.950945       -1.222695        0.205692
6
  Step 11: 11.0 fs
C       -0.021808        0.678826        0.000672
H        0.997098        1.137662       -0.033057
H       -0.887758        1.376794        0.092715
C        0.013436       -0.680084       -0.022053
H       -0.922967       -1.315572        0.020376
H        0.913237       -1.183965        0.174541
6
  Step 12: 12.0 fs
C       -0.017687        0.676597        0.000056
H        1.060446        1.146135       -0.025241
H       -0.961446        1.379075        0.083753
C        0.015152       -0.678707       -0.018290
H       -0.958274       -1.347161        0.019054
H        0.889379       -1.152976        0.139538
6
  Step 13: 13.0 fs
C       -0.012883        0.674769       -0.000491
H        1.101131        1.152026       -0.015439
H       -1.015534        1.365731        0.070060
C        0.012252       -0.675815       -0.014222
H       -0.974674       -1.364862        0.016257
H        0.896495       -1.140510        0.104295
6
  Step 14: 14.0 fs
C       -0.007674        0.673833       -0.000926
H        1.112622        1.153448       -0.004277
H       -1.042494        1.335268        0.052289
C        0.004647       -0.671756       -0.009917
H       -0.968792       -1.365929        0.012204
H        0.934612       -1.147587        0.068882
6
  Step 15: 15.0 fs
C       -0.002335        0.673917       -0.001227
H        1.093391        1.150175        0.007478
H       -1.039789        1.289462        0.031546
C       -0.005848       -0.667513       -0.005339
H       -0.941775       -1.350584        0.007248
H        0.985507       -1.165373        0.031897
6
  Step 16: 16.0 fs
C        0.002861        0.674787       -0.001390
H        1.046528        1.143579        0.019063
H       -1.009403        1.232724        0.009154
C       -0.016876       -0.663863       -0.000584
H       -0.899567       -1.322433        0.001795
H        1.029214       -1.184012       -0.006513
6
  Step 17: 17.0 fs
C        0.007622        0.675718       -0.001428
H        0.981208        1.137328        0.029861
H       -0.959220        1.172475       -0.013558
C       -0.026148       -0.660828        0.004132
H       -0.854565       -1.289970       -0.003848
H        1.053047       -1.197212       -0.044656
6
  Step 18: 18.0 fs
C        0.011663        0.675318       -0.001364
H        0.915297        1.138814        0.039676
H       -0.906055        1.119996       -0.035625
C       -0.031425       -0.657700        0.008580
H       -0.825443       -1.266630       -0.009696
H        1.051383       -1.202037       -0.080279
6
  Step 19: 19.0 fs
C        0.014865        0.671756       -0.001206
H        0.872866        1.158755        0.049025
H       -0.875068        1.089073       -0.057068
C       -0.031085       -0.653783        0.012576
H       -0.828425       -1.264046       -0.016187
H        1.023628       -1.197867       -0.111152
6
  Step 20: 20.0 fs
C        0.017409        0.664131       -0.000909
H        0.868192        1.203837        0.058495
H       -0.884866        1.088443       -0.078675
C       -0.025372       -0.649502        0.015959
H       -0.862357       -1.280352       -0.023555
H        0.973704       -1.186203       -0.135462
6
  Step 21: 21.0 fs
C        0.019380        0.654014       -0.000445
H        0.891357        1.267146        0.067444
H       -0.927993        1.113531       -0.099883
C       -0.016371       -0.646227        0.018591
H       -0.910512       -1.301999       -0.031233
H        0.911179       -1.171483       -0.152397
6
  Step 22: 22.0 fs
C        0.020512        0.644512        0.000135
H        0.921047        1.332921        0.074257
H       -0.980455        1.151172       -0.118211
C       -0.006915       -0.644989        0.020467
H       -0.955633       -1.315974       -0.038264
H        0.852989       -1.162546       -0.163083
6
  Step 23: 23.0 fs
C        0.020517        0.638319        0.000747
H        0.941215        1.387378        0.077652
H       -1.022218        1.189284       -0.131115
C        0.000222       -0.645878        0.021771
H       -0.986774       -1.314997       -0.043833
H        0.820681       -1.171765       -0.170830
6
  Step 24: 24.0 fs
C        0.019278        0.636983        0.001327
H        0.943915        1.422246        0.077050
H       -1.042482        1.219979       -0.137046
C        0.003480       -0.648663        0.022656
H       -0.998858       -1.296693       -0.047416
H        0.826293       -1.206572       -0.178146
6
  Step 25: 25.0 fs
C        0.016843        0.640972        0.001828
H        0.926794        1.433810        0.072450
H       -1.037320        1.238897       -0.135434
C        0.003411       -0.653609        0.022940
H       -0.991112       -1.262068       -0.048805
H        0.860317       -1.260285       -0.183129
6
  Step 26: 26.0 fs
C        0.013363        0.649819        0.002224
H        0.891502        1.421986        0.064287
H       -1.007515        1.244298       -0.126462
C        0.001762       -0.660997        0.022299
H       -0.966989       -1.215209       -0.048166
H        0.902735       -1.318106       -0.181646
6
  Step 27: 27.0 fs
C        0.009038        0.662170        0.002512
H        0.844044        1.390675        0.053375
H       -0.958520        1.237116       -0.111019
C        0.000417       -0.670270        0.020572
H       -0.935731       -1.163933       -0.046171
H        0.937444       -1.367536       -0.171045
6
  Step 28: 28.0 fs
C        0.004063        0.675735        0.002728
H        0.796899        1.349506        0.040917
H       -0.902174        1.222008       -0.090810
C        0.001247       -0.680012        0.017820
H       -0.913371       -1.119500       -0.043999
H        0.955225       -1.401221       -0.150771
6
  Step 29: 29.0 fs
C       -0.001300        0.687345        0.002947
H        0.769986        1.314413        0.028281
H       -0.858552        1.208784       -0.068313
C        0.005785       -0.688603        0.014231
H       -0.917085       -1.092505       -0.042792
H        0.952046       -1.415854       -0.121718
6
  Step 30: 30.0 fs
C       -0.006481        0.693937        0.003260
H        0.782270        1.300428        0.016300
H       -0.850516        1.209825       -0.045758
C        0.014069       -0.695061        0.009992
H       -0.950422       -1.085707       -0.042617
H        0.928121       -1.411296       -0.085719
6
  Step 31: 31.0 fs
C       -0.010615        0.694691        0.003676
H        0.833036        1.307690        0.004858
H       -0.885045        1.229517       -0.023595
C        0.024223       -0.699138        0.005258
H       -0.998682       -1.093477       -0.042422
H        0.888457       -1.390927       -0.045230
6
  Step 32: 32.0 fs
C       -0.013261        0.691314        0.004113
H        0.901452        1.323016       -0.006186
H       -0.944595        1.258781       -0.001268
C        0.033510       -0.700587        0.000214
H       -1.042606       -1.108353       -0.041187
H        0.844438       -1.363181       -0.002883
6
  Step 33: 33.0 fs
C       -0.014510        0.685971        0.004504
H        0.965412        1.333714       -0.016413
H       -1.004785        1.284818        0.020955
C        0.039230       -0.698744       -0.004978
H       -1.068748       -1.124889       -0.038471
H        0.813561       -1.341710        0.039558
6
  Step 34: 34.0 fs
C       -0.014574        0.680164        0.004830
H        1.010746        1.332812       -0.025118
H       -1.048519        1.299067        0.041939
C        0.039527       -0.693052       -0.010254
H       -1.070636       -1.139826       -0.034326
H        0.811067       -1.338758        0.082072
6
  Step 35: 35.0 fs
C       -0.013621        0.674829        0.005092
H        1.030459        1.317789       -0.031607
H       -1.067056        1.297719        0.060342
C        0.034405       -0.684140       -0.015529
H       -1.047211       -1.151489       -0.029094
H        0.836109       -1.353309        0.124616
6
  Step 36: 36.0 fs
C       -0.011791        0.670591        0.005299
H        1.022416        1.288878       -0.035322
H       -1.057369        1.280172        0.074977
C        0.025505       -0.673720       -0.020503
H       -1.002098       -1.159726       -0.023262
H        0.873512       -1.372243        0.164633
6
  Step 37: 37.0 fs
C       -0.009233        0.667772        0.005459
H        0.988798        1.248662       -0.035912
H       -1.020968        1.248374        0.085002
C        0.014970       -0.663422       -0.024771
H       -0.944176       -1.166614       -0.017342
H        0.907789       -1.382394        0.198180
6
  Step 38: 38.0 fs
C       -0.006171        0.666186        0.005573
H        0.937465        1.202736       -0.033300
H       -0.964621        1.207270        0.090085
C        0.004958       -0.654142       -0.028000
H       -0.888200       -1.177497       -0.011702
H        0.929544       -1.376084        0.221934
6
  Step 39: 39.0 fs
C       -0.002953        0.664837        0.005617
H        0.885085        1.161212       -0.027847
H       -0.902901        1.166143        0.090743
C       -0.002582       -0.646097       -0.030000
H       -0.851517       -1.200130       -0.006407
H        0.934974       -1.350536        0.233833
6
  Step 40: 40.0 fs
C        0.000053        0.661942        0.005512
H        0.856831        1.138169       -0.020254
H       -0.859288        1.139020        0.088583
C       -0.006645       -0.639448       -0.030701
H       -0.843634       -1.238769       -0.001463
H        0.924312       -1.306442        0.233045
6
  Step 41: 41.0 fs
C        0.002865        0.656179        0.005148
H        0.871392        1.143426       -0.010885
H       -0.855755        1.138860        0.085375
C       -0.007793       -0.634920       -0.030117
H       -0.858768       -1.287916        0.002711
H        0.901528       -1.247685        0.220086
6
  Step 42: 42.0 fs
C        0.005776        0.648598        0.004530
H        0.920867        1.171954        0.000563
H       -0.891153        1.165749        0.080901
C       -0.007657       -0.633460       -0.028392
H       -0.883053       -1.335993        0.005425
H        0.875452       -1.182157        0.197224
6
  Step 43: 43.0 fs
C        0.008673        0.642039        0.003817
H        0.980550        1.209154        0.014111
H       -0.942582        1.207084        0.073381
C       -0.008269       -0.635444       -0.025852
H       -0.904224       -1.372816        0.006190
H        0.861155       -1.122150        0.168668
6
  Step 44: 44.0 fs
C        0.011156        0.638952        0.003173
H        1.029752        1.242317        0.029059
H       -0.987389        1.249390        0.061739
C       -0.011477       -0.640540       -0.022877
H       -0.914616       -1.392553        0.004875
H        0.875778       -1.080455        0.138924
6
  Step 45: 45.0 fs
C        0.012894        0.640524        0.002700
H        1.057001        1.263925        0.044317
H       -1.012263        1.283910        0.046115
C       -0.017774       -0.648344       -0.019617
H       -0.910833       -1.393426        0.001640
H        0.923893       -1.061507        0.109341
6
  Step 46: 46.0 fs
C        0.013704        0.646785        0.002450
H        1.057577        1.270554        0.058770
H       -1.011563        1.306176        0.027377
C       -0.025705       -0.658549       -0.015993
H       -0.893571       -1.377318       -0.003203
H        0.990134       -1.059554        0.078305
6
  Step 47: 47.0 fs
C        0.013509        0.656904        0.002438
H        1.031437        1.261721        0.071477
H       -0.984723        1.314678        0.006678
C       -0.032958       -0.670312       -0.011984
H       -0.868392       -1.350265       -0.009286
H        1.052937       -1.066705        0.044786
6
  Step 48: 48.0 fs
C        0.012267        0.669407        0.002646
H        0.983251        1.239754        0.081854
H       -0.935635        1.310579       -0.014773
C       -0.037306       -0.682006       -0.007705
H       -0.846390       -1.322800       -0.016380
H        1.096595       -1.077741        0.009522
6
  Step 49: 49.0 fs
C        0.009883        0.682256        0.003017
H        0.924506        1.210742        0.090010
H       -0.873857        1.298566       -0.035986
C       -0.036950       -0.691684       -0.003324
H       -0.841494       -1.307302       -0.024615
H        1.112795       -1.089974       -0.025762
6
  Step 50: 50.0 fs
C        0.006211        0.692805        0.003455
H        0.875647        1.185506        0.097200
H       -0.816691        1.288445       -0.056641
C       -0.031174       -0.698014        0.000985
H       -0.860881       -1.310025       -0.034397
H        1.098822       -1.102139       -0.059038
6
  Step 51: 51.0 fs
C        0.001282        0.698249        0.003884
H        0.860732        1.176527        0.105607
H       -0.786500        1.293913       -0.077571
C       -0.020959       -0.700857        0.005024
H       -0.897165       -1.325595       -0.045732
H        1.056875       -1.114035       -0.088375
6
  Step 52: 52.0 fs
C       -0.004326        0.697317        0.004351
H        0.887930        1.187701        0.116206
H       -0.795665        1.322744       -0.099844
C       -0.008479       -0.700740        0.008574
H       -0.935118       -1.342904       -0.057888
H        0.994969       -1.127036       -0.112381
6
  Step 53: 53.0 fs
C       -0.009812        0.691412        0.004956
H        0.940531        1.210292        0.127121
H       -0.834013        1.366874       -0.122337
C        0.003620       -0.698074        0.011500
H       -0.961925       -1.352707       -0.069782
H        0.928784       -1.145384       -0.130959
6
  Step 54: 54.0 fs
C       -0.014673        0.683099        0.005718
H        0.994815        1.232546        0.135462
H       -0.880742        1.409915       -0.141956
C        0.012690       -0.692867        0.013825
H       -0.970653       -1.349760       -0.080386
H        0.879823       -1.176640       -0.145822
6
  Step 55: 55.0 fs
C       -0.018623        0.674511        0.006593
H        1.034167        1.246654        0.139231
H       -0.919633        1.438758       -0.155845
C        0.017107       -0.685167        0.015611
H       -0.959743       -1.332244       -0.088912
H        0.862894       -1.226541       -0.158856
6
  Step 56: 56.0 fs
C       -0.021457        0.667103        0.007528
H        1.050048        1.248971        0.137593
H       -0.941904        1.446285       -0.162319
C        0.017310       -0.675860        0.016703
H       -0.932062       -1.301110       -0.094952
H        0.872917       -1.290136       -0.168849
6
  Step 57: 57.0 fs
C       -0.023004        0.661845        0.008487
H        1.039386        1.238611        0.130504
H       -0.944162        1.429937       -0.160759
C        0.015112       -0.666440        0.016806
H       -0.894880       -1.260372       -0.098678
H        0.893243       -1.353724       -0.172235
6
  Step 58: 58.0 fs
C       -0.023145        0.659258        0.009447
H        1.003396        1.216884        0.118533
H       -0.927007        1.390655       -0.151401
C        0.012526       -0.658053        0.015768
H       -0.860329       -1.217727       -0.101099
H        0.909982       -1.404427       -0.166285
6
  Step 59: 59.0 fs
C       -0.021850        0.659247        0.010404
H        0.948308        1.187741        0.102860
H       -0.895389        1.333077       -0.135368
C        0.011369       -0.651119        0.013664
H       -0.844092       -1.183607       -0.104011
H        0.915571       -1.434267       -0.150074
6
  Step 60: 60.0 fs
C       -0.019239        0.660810        0.011381
H        0.888000        1.159221        0.085405
H       -0.860737        1.266900       -0.114910
C        0.012757       -0.645774        0.010661
H       -0.857584       -1.165760       -0.108887
H        0.907095       -1.439670       -0.124078
6
  Step 61: 61.0 fs
C       -0.015599        0.661929        0.012429
H        0.845336        1.144316        0.068647
H       -0.842420        1.207148       -0.093325
C        0.016410       -0.642471        0.006863
H       -0.897857       -1.162880       -0.115321
H        0.884879       -1.420549       -0.089716
6
  Step 62: 62.0 fs
C       -0.011218        0.660561        0.013597
H        0.842416        1.155967        0.054437
H       -0.860262        1.167917       -0.073438
C        0.020850       -0.641795        0.002318
H       -0.950020       -1.166859       -0.121350
H        0.852763       -1.380755       -0.049162
6
  Step 63: 63.0 fs
C       -0.006169        0.656695        0.014852
H        0.878832        1.194881        0.042812
H       -0.915274        1.150730       -0.055439
C        0.024174       -0.643787       -0.002868
H       -0.998200       -1.169833       -0.125069
H        0.819845       -1.329757       -0.005016
6
  Step 64: 64.0 fs
C       -0.000551        0.652377        0.016077
H        0.931950        1.248174        0.033060
H       -0.986754        1.145591       -0.037932
C        0.024417       -0.647631       -0.008554
H       -1.031343       -1.167380       -0.125423
H        0.801551       -1.283192        0.040694
6
  Step 65: 65.0 fs
C        0.005326        0.649697        0.017162
H        0.978877        1.301134        0.025034
H       -1.051390        1.142678       -0.020282
C        0.020048       -0.652169       -0.014669
H       -1.043549       -1.158213       -0.122154
H        0.813503       -1.256467        0.087702
6
  Step 66: 66.0 fs
C        0.011083        0.649842        0.018040
H        1.006004        1.343645        0.019038
H       -1.094162        1.136912       -0.002914
C        0.011192       -0.657049       -0.021108
H       -1.033500       -1.143329       -0.115576
H        0.855981       -1.251718        0.135968
6
  Step 67: 67.0 fs
C        0.016402        0.653158        0.018676
H        1.007411        1.370131        0.015455
H       -1.108029        1.126877        0.013304
C       -0.000162       -0.662681       -0.027483
H       -1.004886       -1.125850       -0.106461
H        0.911684       -1.258075        0.182553
6
  Step 68: 68.0 fs
C        0.021036        0.659332        0.019050
H        0.982157        1.378299        0.014575
H       -1.091420        1.113228        0.027470
C       -0.011345       -0.669081       -0.033228
H       -0.967786       -1.111478       -0.095984
H        0.961204       -1.264285        0.222729
6
  Step 69: 69.0 fs
C        0.024767        0.667494        0.019149
H        0.933715        1.368968        0.016562
H       -1.047358        1.098116        0.038783
C       -0.019734       -0.675455       -0.037825
H       -0.938660       -1.108411       -0.085489
H        0.991921       -1.264210        0.252503
6
  Step 70: 70.0 fs
C        0.027364        0.676225        0.018959
H        0.871298        1.347132        0.021441
H       -0.984469        1.085387        0.046672
C       -0.023325       -0.680667       -0.040935
H       -0.933401       -1.124091       -0.075863
H        0.998005       -1.255867        0.269403
6
  Step 71: 71.0 fs
C        0.028587        0.683439        0.018450
H        0.812513        1.324178        0.029197
H       -0.919459        1.081327        0.050947
C       -0.021718       -0.684056       -0.042425
H       -0.953927       -1.158748       -0.067090
H        0.978613       -1.239730        0.272386
6
  Step 72: 72.0 fs
C        0.028303        0.686560        0.017558
H        0.781487        1.316850        0.040011
H       -0.876303        1.094460        0.051889
C       -0.016296       -0.685664       -0.042341
H       -0.986240       -1.203982       -0.058790
H        0.937607       -1.218330        0.261946
6
  Step 73: 73.0 fs
C        0.026729        0.683987        0.016217
H        0.793141        1.335111        0.054281
H       -0.872961        1.130923        0.049821
C       -0.009290       -0.685694       -0.040898
H       -1.013297       -1.248982       -0.050933
H        0.884984       -1.197063        0.240685
6
  Step 74: 74.0 fs
C        0.024239        0.676838        0.014499
H        0.837674        1.369579        0.071646
H       -0.903547        1.186587        0.044443
C       -0.003196       -0.684033       -0.038531
H       -1.023782       -1.285465       -0.043861
H        0.838607       -1.185380        0.213887
6
  Step 75: 75.0 fs
C        0.020932        0.667949        0.012622
H        0.892979        1.401755        0.090529
H       -0.945743        1.248554        0.035255
C       -0.000345       -0.680321       -0.035772
H       -1.012904       -1.308545       -0.038059
H        0.820031       -1.194809        0.187893
6
  Step 76: 76.0 fs
C        0.016813        0.659900        0.010802
H        0.941456        1.417989        0.108953
H       -0.980047        1.304077        0.022382
C       -0.001602       -0.674767       -0.032831
H       -0.981011       -1.316200       -0.034000
H        0.837974       -1.229194        0.164942
6
  Step 77: 77.0 fs
C        0.012002        0.654415        0.009195
H        0.973146        1.411736        0.125216
H       -0.995668        1.344715        0.006541
C       -0.005648       -0.668658       -0.029482
H       -0.932913       -1.309225       -0.032066
H        0.879269       -1.277997        0.141844
6
  Step 78: 78.0 fs
C        0.006730        0.652471        0.007900
H        0.983477        1.381339        0.138060
H       -0.988402        1.366001       -0.011282
C       -0.010184       -0.663401       -0.025502
H       -0.878387       -1.292213       -0.032536
H        0.923910       -1.325348        0.115319
6
  Step 79: 79.0 fs
C        0.001278        0.654351        0.006960
H        0.971795        1.328552        0.146689
H       -0.958485        1.366578       -0.030044
C       -0.012983       -0.659518       -0.020875
H       -0.832459       -1.274496       -0.035643
H        0.957991       -1.359483        0.084665
6
  Step 80: 80.0 fs
C       -0.004102        0.659588        0.006370
H        0.941775        1.258528        0.150949
H       -0.910229        1.348299       -0.048854
C       -0.012269       -0.656670       -0.015726
H       -0.811758       -1.267901       -0.041729
H        0.974609       -1.374042        0.051005
6
  Step 81: 81.0 fs
C       -0.009254        0.666804        0.006061
H        0.903711        1.180811        0.151816
H       -0.853463        1.317563       -0.067220
C       -0.007423       -0.654543       -0.010240
H       -0.823699       -1.278217       -0.051133
H        0.971483       -1.366517        0.016275
6
  Step 82: 82.0 fs
C       -0.014120        0.673602        0.005906
H        0.876931        1.109623        0.151892
H       -0.805812        1.287408       -0.085610
C        0.000508       -0.653507       -0.004686
H       -0.859479       -1.299223       -0.063542
H        0.949881       -1.337454       -0.017288
6
  Step 83: 83.0 fs
C       -0.018539        0.677216        0.005821
H        0.884022        1.059070        0.154598
H       -0.789391        1.275334       -0.105818
C        0.009482       -0.654078        0.000603
H       -0.902565       -1.319338       -0.077758
H        0.915210       -1.290959       -0.047526
6
  Step 84: 84.0 fs
C       -0.021994        0.676471        0.005889
H        0.930681        1.033623        0.160807
H       -0.814010        1.290361       -0.129122
C        0.017164       -0.656164        0.005325
H       -0.939024       -1.329783       -0.092243
H        0.879292       -1.236377       -0.072982
6
  Step 85: 85.0 fs
C       -0.024035        0.672668        0.006220
H        0.998280        1.027670        0.167493
H       -0.865180        1.323197       -0.153326
C        0.021124       -0.658926        0.009339
H       -0.960295       -1.326440       -0.105598
H        0.861286       -1.188439       -0.093852
6
  Step 86: 86.0 fs
C       -0.024586        0.667928        0.006796
H        1.062700        1.033783        0.170964
H       -0.919477        1.357385       -0.174137
C        0.019528       -0.661415        0.012659
H       -0.962439       -1.308811       -0.116762
H        0.878864       -1.160305       -0.111729
6
  Step 87: 87.0 fs
C       -0.023732        0.663857        0.007534
H        1.107454        1.046645        0.169021
H       -0.960025        1.381022       -0.188117
C        0.012609       -0.663586        0.015221
H       -0.945621       -1.279149       -0.125138
H        0.930040       -1.152145       -0.126725
6
  Step 88: 88.0 fs
C       -0.021566        0.661377        0.008353
H        1.124095        1.062910        0.160935
H       -0.978258        1.388205       -0.193454
C        0.002630       -0.665988        0.016818
H       -0.914924       -1.242745       -0.130884
H        0.993955       -1.153864       -0.136328
6
  Step 89: 89.0 fs
C       -0.018175        0.660865        0.009194
H        1.109635        1.080449        0.146914
H       -0.971285        1.377132       -0.189609
C       -0.007561       -0.668671        0.017344
H       -0.881806       -1.208696       -0.135346
H        1.049284       -1.156341       -0.137966
6
  Step 90: 90.0 fs
C       -0.013684        0.662219        0.010012
H        1.065605        1.098149        0.127856
H       -0.940497        1.349075       -0.177038
C       -0.015302       -0.670920        0.016931
H       -0.863279       -1.189069       -0.141157
H        1.082692       -1.154973       -0.130490
6
  Step 91: 91.0 fs
C       -0.008318        0.664849        0.010785
H        0.998945        1.116371        0.105307
H       -0.892027        1.308584       -0.157212
C       -0.018813       -0.671921        0.015798
H       -0.872559       -1.192747       -0.150630
H        1.088070       -1.148429       -0.113999
6
  Step 92: 92.0 fs
C       -0.002426        0.667513        0.011527
H        0.924539        1.138366        0.081516
H       -0.839212        1.264897       -0.132933
C       -0.018105       -0.671628        0.013990
H       -0.906082       -1.217351       -0.163027
H        1.064592       -1.137341       -0.089412
6
  Step 93: 93.0 fs
C        0.003604        0.668237        0.012312
H        0.865446        1.171551        0.059059