6
  Step 0: 0.0 fs
C       -0.000000        0.665091        0.000002
H        0.925306        1.240815       -0.000013
H       -0.925302        1.240823       -0.000004
C        0.000000       -0.665092       -0.000002
H       -0.925312       -1.240822        0.000000
H        0.925309       -1.240807        0.000009
6
  Step 1: 1.0 fs
C       -0.012805        0.684016        0.004251
H        0.939401        1.207545       -0.036329
H       -0.835114        1.208209       -0.005312
C        0.003806       -0.674166        0.001003
H       -0.914945       -1.263759       -0.025964
H        0.917825       -1.269270        0.005053
6
  Step 2: 2.0 fs
C       -0.021523        0.699022        0.008377
H        0.953557        1.176536       -0.071252
H       -0.790803        1.204485       -0.010955
C        0.007341       -0.682225        0.001974
H       -0.904918       -1.285533       -0.050904
H        0.911033       -1.295475        0.009861
6
  Step 3: 3.0 fs
C       -0.022948        0.707104        0.012337
H        0.966841        1.149515       -0.103442
H       -0.826613        1.252435       -0.018148
C        0.010313       -0.688599        0.002877
H       -0.895389       -1.304909       -0.073831
H        0.905626       -1.317355        0.014274
6
  Step 4: 4.0 fs
C       -0.019607        0.709387        0.015968
H        0.978421        1.128119       -0.131722
H       -0.909216        1.330754       -0.026546
C        0.012473       -0.693009        0.003676
H       -0.886414       -1.320646       -0.093810
H        0.902181       -1.333223        0.018186
6
  Step 5: 5.0 fs
C       -0.015196        0.708185        0.019024
H        0.987445        1.113739       -0.155113
H       -0.992019        1.407635       -0.034472
C        0.013655       -0.695405        0.004330
H       -0.878137       -1.331718       -0.110004
H        0.901101       -1.341810        0.021526
6
  Step 6: 6.0 fs
C       -0.011518        0.704790        0.021320
H        0.992841        1.107219       -0.172777
H       -1.051387        1.466014       -0.040794
C        0.013782       -0.695835        0.004807
H       -0.870938       -1.337537       -0.121752
H        0.902583       -1.342292        0.024243
6
  Step 7: 7.0 fs
C       -0.009175        0.699840        0.022741
H        0.993537        1.108704       -0.184010
H       -1.078612        1.498940       -0.044984
C        0.012868       -0.694396        0.005086
H       -0.865471       -1.338076       -0.128623
H        0.906622       -1.334354        0.026288
6
  Step 8: 8.0 fs
C       -0.008312        0.693788        0.023216
H        0.988790        1.117681       -0.188261
H       -1.071372        1.503842       -0.046790
C        0.011017       -0.691217        0.005162
H       -0.862584       -1.333866       -0.130428
H        0.913015       -1.318232        0.027595
6
  Step 9: 9.0 fs
C       -0.008932        0.687094        0.022701
H        0.978506        1.133066       -0.185187
H       -1.030314        1.480145       -0.046071
C        0.008395       -0.686471        0.005047
H       -0.863110       -1.325857       -0.127196
H        0.921385       -1.294724        0.028067
6
  Step 10: 10.0 fs
C       -0.010920        0.680212        0.021192
H        0.963443        1.153315       -0.174724
H       -0.958949        1.429209       -0.042791
C        0.005208       -0.680392        0.004764
H       -0.867588       -1.315177       -0.119124
H        0.931182       -1.265157        0.027588
6
  Step 11: 11.0 fs
C       -0.013795        0.673383        0.018744
H        0.945273        1.176547       -0.157147
H       -0.866617        1.356662       -0.037226
C        0.001676       -0.673295        0.004341
H       -0.875975       -1.302871       -0.106543
H        0.941709       -1.231339        0.026059
6
  Step 12: 12.0 fs
C       -0.016057        0.666077        0.015513
H        0.926430        1.200745       -0.133089
H       -0.776083        1.278617       -0.030462
C       -0.001994       -0.665587        0.003804
H       -0.887494       -1.289690       -0.089899
H        0.952171       -1.195450        0.023443
6
  Step 13: 13.0 fs
C       -0.014444        0.656390        0.011792
H        0.909551        1.224017       -0.103500
H       -0.731613        1.228626       -0.024794
C       -0.005619       -0.657786        0.003180
H       -0.900703       -1.276031       -0.069771
H        0.961758       -1.159933        0.019794
6
  Step 14: 14.0 fs
C       -0.006372        0.643098        0.007829
H        0.896792        1.244918       -0.069602
H       -0.769195        1.234037       -0.021674
C       -0.009039       -0.650612        0.002492
H       -0.913789       -1.262006       -0.046881
H        0.969790       -1.127422        0.015274
6
  Step 15: 15.0 fs
C        0.005410        0.629442        0.003628
H        0.889333        1.262543       -0.032787
H       -0.860231        1.272134       -0.019443
C       -0.012114       -0.645086        0.001764
H       -0.925025       -1.247680       -0.022115
H        0.975860       -1.100665        0.010152
6
  Step 16: 16.0 fs
C        0.016896        0.619557       -0.000774
H        0.886756        1.276186        0.005481
H       -0.958774        1.309658       -0.016763
C       -0.014749       -0.642249        0.001026
H       -0.933264       -1.233407        0.003487
H        0.979844       -1.082174        0.004799
6
  Step 17: 17.0 fs
C        0.026000        0.615689       -0.005240
H        0.887520        1.285257        0.043654
H       -1.039621        1.330946       -0.013486
C       -0.016863       -0.642752        0.000316
H       -0.938293       -1.220054        0.028832
H        0.981744       -1.073852       -0.000363
6
  Step 18: 18.0 fs
C        0.031913        0.618455       -0.009599
H        0.890054        1.289545        0.080161
H       -1.092099        1.331442       -0.009849
C       -0.018339       -0.646605       -0.000335
H       -0.940914       -1.208941        0.052895
H        0.981490       -1.076785       -0.004922
6
  Step 19: 19.0 fs
C        0.034308        0.627341       -0.013685
H        0.893410        1.289410        0.113543
H       -1.111738        1.310987       -0.006133
C       -0.018998       -0.653177       -0.000904
H       -0.942618       -1.201523        0.074810
H        0.978806       -1.091169       -0.008512
6
  Step 20: 20.0 fs
C        0.033039        0.641088       -0.017347
H        0.897383        1.285773        0.142581
H       -1.096930        1.271332       -0.002607
C       -0.018642       -0.661395       -0.001381
H       -0.944926       -1.198912        0.093856
H        0.973222       -1.116321       -0.010839
6
  Step 21: 21.0 fs
C        0.028155        0.657996       -0.020453
H        0.902176        1.279861        0.166332
H       -1.048761        1.215952        0.000477
C       -0.017139       -0.670052       -0.001761
H       -0.948625       -1.201406        0.109396
H        0.964215       -1.150766       -0.011696
6
  Step 22: 22.0 fs
C        0.020231        0.676103       -0.022894
H        0.907861        1.272846        0.184086
H       -0.974085        1.151514        0.002961
C       -0.014495       -0.678087       -0.002039
H       -0.953303       -1.208260        0.120817
H        0.951408       -1.192373       -0.010987
6
  Step 23: 23.0 fs
C        0.011114        0.693063       -0.024607
H        0.913884        1.265634        0.195282
H       -0.893788        1.091289        0.005075
C       -0.010871       -0.684703       -0.002196
H       -0.957538       -1.217840        0.127538
H        0.934745       -1.238529       -0.008747
6
  Step 24: 24.0 fs
C        0.004757        0.706011       -0.025631
H        0.919029        1.258955        0.199504
H       -0.852552        1.057684        0.008089
C       -0.006546       -0.689396       -0.002213
H       -0.959579       -1.228047        0.129096
H        0.914592       -1.286324       -0.005150
6
  Step 25: 25.0 fs
C        0.004810        0.712752       -0.026078
H        0.922325        1.253768        0.196666
H       -0.891145        1.068106        0.013719
C       -0.001842       -0.691940       -0.002069
H       -0.958078       -1.236779        0.125234
H        0.891759       -1.332788       -0.000478
6
  Step 26: 26.0 fs
C        0.009182        0.713770       -0.025907
H        0.924261        1.251598        0.187213
H       -0.983227        1.110863        0.021184
C        0.002936       -0.692347       -0.001747
H       -0.952610       -1.242308        0.115947
H        0.867493       -1.375111        0.004934
6
  Step 27: 27.0 fs
C        0.013700        0.710600       -0.025000
H        0.926115        1.254030        0.171923
H       -1.078201        1.164191        0.028287
C        0.007533       -0.690764       -0.001243
H       -0.943895       -1.243530        0.101529
H        0.843383       -1.410749        0.010742
6
  Step 28: 28.0 fs
C        0.016126        0.704343       -0.023315
H        0.928366        1.261796        0.151504
H       -1.147630        1.214321        0.033669
C        0.011758       -0.687407       -0.000568
H       -0.933757       -1.240063        0.082581
H        0.821240       -1.437587        0.016622
6
  Step 29: 29.0 fs
C        0.015813        0.695844       -0.020859
H        0.929888        1.274201        0.126454
H       -1.180595        1.254126        0.036722
C        0.015494       -0.682560        0.000248
H       -0.924772       -1.232235        0.059932
H        0.802941       -1.454138        0.022315
6
  Step 30: 30.0 fs
C        0.012854        0.685988       -0.017672
H        0.928316        1.289166        0.097227
H       -1.174038        1.279632        0.037170
C        0.018665       -0.676587        0.001163
H       -0.919612       -1.220895        0.034527
H        0.790284       -1.459704        0.027644
6
  Step 31: 31.0 fs
C        0.007626        0.675781       -0.013828
H        0.921224        1.303860        0.064525
H       -1.128661        1.288416        0.034888
C        0.021183       -0.669959        0.002133
H       -0.920155       -1.207055        0.007337
H        0.784814       -1.454407        0.032508
6
  Step 32: 32.0 fs
C        0.000652        0.666263       -0.009449
H        0.907275        1.315430        0.029463
H       -1.048358        1.279416        0.029873
C        0.022900       -0.663241        0.003107
H       -0.926718       -1.191571       -0.020653
H        0.787624       -1.439112        0.036847
6
  Step 33: 33.0 fs
C       -0.007253        0.658264       -0.004711
H        0.887048        1.321648       -0.006473
H       -0.942806        1.254475        0.022384
C        0.023607       -0.657060        0.004029
H       -0.937876       -1.175070       -0.048369
H        0.799183       -1.415235        0.040587
6
  Step 34: 34.0 fs
C       -0.014458        0.651874        0.000160
H        0.863435        1.321388       -0.041593
H       -0.833996        1.222961        0.013078
C        0.023078       -0.652007        0.004841
H       -0.950958       -1.158159       -0.074615
H        0.819159       -1.384463        0.043600
6
  Step 35: 35.0 fs
C       -0.017917        0.645781        0.004932
H        0.841332        1.314847       -0.074271
H       -0.762900        1.208458        0.002728
C        0.021153       -0.648551        0.005484
H       -0.962957       -1.141722       -0.098155
H        0.846280       -1.348436        0.045682
6
  Step 36: 36.0 fs
C       -0.014965        0.638321        0.009482
H        0.826594        1.303508       -0.103191
H       -0.767104        1.236489       -0.008834
C        0.017811       -0.647067        0.005913
H       -0.971370       -1.127095       -0.117860
H        0.878287       -1.308607        0.046585
6
  Step 37: 37.0 fs
C       -0.007411        0.630966        0.013729
H        0.824160        1.289597       -0.127445
H       -0.830413        1.295004       -0.021871
C        0.013224       -0.647933        0.006104
H       -0.974790       -1.116015       -0.132867
H        0.912128       -1.266397        0.046051
6
  Step 38: 38.0 fs
C        0.001040        0.626685        0.017482
H        0.835941        1.275087       -0.146388
H       -0.911385        1.352900       -0.035012
C        0.007745       -0.651370        0.006056
H       -0.973268       -1.110518       -0.142700
H        0.944412       -1.223378        0.043856
6
  Step 39: 39.0 fs
C        0.008186        0.627066        0.020543
H        0.860224        1.260862       -0.159390
H       -0.983152        1.391988       -0.046701
C        0.001855       -0.657178        0.005792
H       -0.968305       -1.112752       -0.147326
H        0.971992       -1.181391        0.039863
6
  Step 40: 40.0 fs
C        0.013175        0.632319        0.022759
H        0.892710        1.246579       -0.165770
H       -1.032796        1.405952       -0.055915
C       -0.003916       -0.664667        0.005352
H       -0.962304       -1.124631       -0.147087
H        0.992461       -1.142574        0.034065
6
  Step 41: 41.0 fs
C        0.015767        0.641856        0.024017
H        0.928040        1.231250       -0.164936
H       -1.054189        1.393965       -0.062047
C       -0.009101       -0.672802        0.004780
H       -0.957456       -1.147279       -0.142472
H        1.004565       -1.109295        0.026592
6
  Step 42: 42.0 fs
C        0.015954        0.654651        0.024245
H        0.961040        1.214026       -0.156592
H       -1.044658        1.357817       -0.064713
C       -0.013431       -0.680458        0.004099
H       -0.954468       -1.180426       -0.133863
H        1.008376       -1.083957        0.017700
6
  Step 43: 43.0 fs
C        0.013880        0.669403        0.023428
H        0.987616        1.194753       -0.140907
H       -1.004650        1.301572       -0.063763
C       -0.016894       -0.686649        0.003310
H       -0.951954       -1.222051       -0.121422
H        1.005229       -1.068731        0.007741
6
  Step 44: 44.0 fs
C        0.010049        0.684516        0.021641
H        1.005132        1.174135       -0.118554
H       -0.940297        1.233036       -0.059522
C       -0.019697       -0.690661        0.002396
H       -0.947014       -1.268551       -0.105245
H        0.997406       -1.065258       -0.002871
6
  Step 45: 45.0 fs
C        0.005922        0.697896        0.019090
H        1.012559        1.153683       -0.090655
H       -0.870303        1.167203       -0.053385
C       -0.022106       -0.692093        0.001347
H       -0.936635       -1.315546       -0.085596
H        0.987436       -1.074246       -0.013692
6
  Step 46: 46.0 fs
C        0.004507        0.706827        0.016146
H        1.010648        1.135592       -0.058658
H       -0.832886        1.128238       -0.048291
C       -0.024299       -0.690857        0.000168
H       -0.918915       -1.358654       -0.063023
H        0.977178       -1.095130       -0.024262
6
  Step 47: 47.0 fs
C        0.008323        0.709225        0.013155
H        1.002457        1.122628       -0.024166
H       -0.862025        1.134943       -0.046544
C       -0.026250       -0.687162       -0.001129
H       -0.893783       -1.394167       -0.038361
H        0.967184       -1.125901       -0.034113
6
  Step 48: 48.0 fs
C        0.015198        0.705663        0.010111
H        0.993552        1.117938        0.011330
H       -0.937642        1.177049       -0.046242
C       -0.027722       -0.681482       -0.002524
H       -0.863141       -1.419497       -0.012637
H        0.956740       -1.163189       -0.042768
6
  Step 49: 49.0 fs
C        0.021096        0.697996        0.006898
H        0.989429        1.124040        0.046706
H       -1.016612        1.231920       -0.044486
C       -0.028351       -0.674450       -0.003998
H       -0.830648       -1.433459        0.013052
H        0.944617       -1.202649       -0.049784
6
  Step 50: 50.0 fs
C        0.023817        0.687856        0.003525
H        0.991386        1.141213        0.081074
H       -1.072784        1.283936       -0.040051
C       -0.027764       -0.666765       -0.005531
H       -0.801205       -1.436357        0.037678
H        0.929999       -1.239691       -0.054811
6
  Step 51: 51.0 fs
C        0.022972        0.676714        0.000112
H        0.995324        1.166730        0.113254
H       -1.095756        1.324582       -0.032798
C       -0.025666       -0.659169       -0.007098
H       -0.780142       -1.429725        0.060398
H        0.913066       -1.270263       -0.057655
6
  Step 52: 52.0 fs
C        0.019048        0.666061       -0.003145
H        0.994605        1.195811        0.141537
H       -1.082925        1.349116       -0.023048
C       -0.021924       -0.652422       -0.008678
H       -0.772098       -1.415582        0.080591
H        0.895079       -1.291519       -0.058289
6
  Step 53: 53.0 fs
C        0.012759        0.657322       -0.006019
H        0.983834        1.223423        0.163997
H       -1.035665        1.354861       -0.011336
C       -0.016633       -0.647275       -0.010235
H       -0.779806       -1.395453        0.097730
H        0.878190       -1.302229       -0.056844
6
  Step 54: 54.0 fs
C        0.004847        0.651625       -0.008298
H        0.960771        1.245520        0.178989
H       -0.958967        1.341206        0.001657
C       -0.010164       -0.644394       -0.011714
H       -0.803168       -1.369656        0.111205
H        0.865104       -1.302928       -0.053551
6
  Step 55: 55.0 fs
C       -0.003744        0.649413       -0.009828
H        0.926904        1.259733        0.185539
H       -0.864060        1.311562        0.015184
C       -0.003146       -0.644184       -0.013038
H       -0.839096       -1.337495        0.120238
H        0.858733       -1.295817       -0.048689
6
  Step 56: 56.0 fs
C       -0.011369        0.649872       -0.010553
H        0.887399        1.265764        0.183545
H       -0.774128        1.278299        0.028815
C        0.003620       -0.646626       -0.014121
H       -0.882225       -1.298197        0.123982
H        0.861676       -1.284270       -0.042532
6
  Step 57: 57.0 fs
C       -0.015410        0.650572       -0.010606
H        0.850607        1.265600        0.173822
H       -0.726806        1.266780        0.043390
C        0.009328       -0.651279       -0.014895
H       -0.926181       -1.251967        0.121791
H        0.875258       -1.271753       -0.035352
6
  Step 58: 58.0 fs
C       -0.014321        0.649302       -0.010249
H        0.826401        1.263296        0.157879
H       -0.748273        1.296056        0.060551
C        0.013393       -0.657531       -0.015320
H       -0.965006       -1.200525        0.113461
H        0.898385       -1.260596       -0.027422
6
  Step 59: 59.0 fs
C       -0.010225        0.646946       -0.009508
H        0.822601        1.263471        0.137259
H       -0.819118        1.348605        0.079021
C        0.015613       -0.664862       -0.015402
H       -0.994319       -1.147081        0.099357
H        0.927153       -1.251416       -0.019031
6
  Step 60: 60.0 fs
C       -0.006058        0.645546       -0.008198
H        0.840519        1.268433        0.112819
H       -0.904020        1.395775        0.095620
C        0.016159       -0.672794       -0.015171
H       -1.012109       -1.095944        0.080374
H        0.955822       -1.243561       -0.010544
6
  Step 61: 61.0 fs
C       -0.003141        0.646326       -0.006170
H        0.873936        1.276468        0.084733
H       -0.979595        1.421689        0.108162
C        0.015456       -0.680741       -0.014678
H       -1.019071       -1.052000        0.057773
H        0.978592       -1.236121       -0.002411
6
  Step 62: 62.0 fs
C       -0.001551        0.649746       -0.003387
H        0.912599        1.283325        0.053280
H       -1.033685        1.420941        0.115646
C        0.014048       -0.687980       -0.013976
H       -1.018354       -1.020031        0.032958
H        0.991136       -1.228719        0.004880
6
  Step 63: 63.0 fs
C       -0.000950        0.655745        0.000082
H        0.946769        1.285036        0.019413
H       -1.060182        1.393169        0.117695
C        0.012456       -0.693714       -0.013114
H       -1.014531       -1.004014        0.007217
H        0.991447       -1.221833        0.010859
6
  Step 64: 64.0 fs
C       -0.001014        0.663866        0.004092
H        0.969544        1.279387       -0.015334
H       -1.056420        1.340652        0.114291
C        0.011001       -0.697175       -0.012122
H       -1.011698       -1.006338       -0.018452
H        0.980176       -1.216821        0.015124
6
  Step 65: 65.0 fs
C       -0.001487        0.673295        0.008448
H        0.977384        1.266172       -0.049164
H       -1.023191        1.268149        0.105763
C        0.009649       -0.697737       -0.011023
H       -1.011415       -1.027234       -0.043286
H        0.960564       -1.215774        0.017376
6
  Step 66: 66.0 fs
C       -0.001943        0.682809        0.012907
H        0.970098        1.247075       -0.080355
H       -0.967467        1.184293        0.093051
C        0.007995       -0.695018       -0.009850
H       -1.011929       -1.064558       -0.066524
H        0.937759       -1.221140        0.017448
6
  Step 67: 67.0 fs
C       -0.001250        0.690637        0.017180
H        0.950857        1.225544       -0.107608
H       -0.908701        1.104028        0.078058
C        0.005500       -0.688990       -0.008654
H       -1.009247       -1.114080       -0.087219
H        0.917019       -1.234805        0.015274
6
  Step 68: 68.0 fs
C        0.002768        0.694593        0.020976
H        0.926142        1.206585       -0.130361
H       -0.882581        1.047882        0.063340
C        0.001845       -0.680090       -0.007499
H       -0.999265       -1.170103       -0.104273
H        0.901325       -1.256753        0.010851
6
  Step 69: 69.0 fs
C        0.011275        0.693295        0.024218
H        0.905354        1.196354       -0.149058
H       -0.915902        1.028517        0.049859
C       -0.002846       -0.669265       -0.006447
H       -0.979490       -1.226429       -0.116629
H        0.890227       -1.284260        0.004260
6
  Step 70: 70.0 fs
C        0.021595        0.687339        0.027077
H        0.897684        1.200360       -0.164829
H       -0.989216        1.038653        0.036355
C       -0.008085       -0.657864       -0.005558
H       -0.949729       -1.277256       -0.123448
H        0.880971       -1.312400       -0.004278
6
  Step 71: 71.0 fs
C        0.030129        0.678392        0.029621
H        0.906016        1.220112       -0.178104
H       -1.064948        1.064408        0.022222
C       -0.013260       -0.647358       -0.004884
H       -0.912196       -1.318073       -0.124266
H        0.870843       -1.335647       -0.014359
6
  Step 72: 72.0 fs
C        0.035273        0.668399        0.031682
H        0.924027        1.251049       -0.187478
H       -1.119047        1.095915        0.008008
C       -0.017794       -0.639083       -0.004470
H       -0.871295       -1.346252       -0.119078
H        0.858780       -1.349452       -0.025438
6
  Step 73: 73.0 fs
C        0.036972        0.659299        0.032995
H        0.941187        1.285013       -0.190549
H       -1.141013        1.127247       -0.005356
C       -0.021200       -0.634050       -0.004341
H       -0.833095       -1.361439       -0.108311
H        0.845716       -1.351126       -0.036937
6
  Step 74: 74.0 fs
C        0.035657        0.652704        0.033345
H        0.948859        1.314191       -0.185448
H       -1.127671        1.154698       -0.016924
C       -0.023083       -0.632772       -0.004496
H       -0.804639       -1.365637       -0.092741
H        0.834339       -1.340249       -0.048372
6
  Step 75: 75.0 fs
C        0.031761        0.649661        0.032617
H        0.942519        1.333055       -0.171481
H       -1.079946        1.175921       -0.025808
C       -0.023186       -0.635171       -0.004901
H       -0.792589       -1.362495       -0.073258
H        0.828520       -1.318677       -0.059448
6
  Step 76: 76.0 fs
C        0.025704        0.650485        0.030801
H        0.921921        1.338894       -0.149159
H       -1.002795        1.190054       -0.031258
C       -0.021500       -0.640656       -0.005509
H       -0.801075       -1.355498       -0.050629
H        0.832502       -1.290152       -0.070086
6
  Step 77: 77.0 fs
C        0.018157        0.654620        0.027995
H        0.890955        1.331902       -0.120021
H       -0.908023        1.199319       -0.032898
C       -0.018370       -0.648375       -0.006267
H       -0.829432       -1.345911       -0.025426
H        0.849651       -1.259329       -0.080336
6
  Step 78: 78.0 fs
C        0.010447        0.660415        0.024422
H        0.857781        1.315343       -0.086353
H       -0.818797        1.212386       -0.031161
C       -0.014415       -0.657472       -0.007120
H       -0.871646       -1.332379        0.001704
H        0.880539       -1.230043       -0.090175
6
  Step 79: 79.0 fs
C        0.004451        0.665199        0.020408
H        0.834371        1.295292       -0.050709
H       -0.767646        1.245634       -0.027388
C       -0.010277       -0.667211       -0.008007
H       -0.918355       -1.312601        0.029714
H        0.921639       -1.204017       -0.099247
6
  Step 80: 80.0 fs
C        0.000806        0.666884        0.016186
H        0.832708        1.278325       -0.015107
H       -0.771537        1.308756       -0.022246
C       -0.006375       -0.676981       -0.008875
H       -0.960146       -1.285414        0.057138
H        0.965922       -1.181090       -0.106808
6
  Step 81: 81.0 fs
C       -0.002115        0.665933        0.011788
H        0.857482        1.267192        0.019438
H       -0.812844        1.387532       -0.014891
C       -0.002882       -0.686280       -0.009683
H       -0.989848       -1.251566        0.082379
H        1.005366       -1.160537       -0.111969
6
  Step 82: 82.0 fs
C       -0.005779        0.664215        0.007256
H        0.901790        1.258615        0.052251
H       -0.864262        1.459416       -0.004878
C        0.000180       -0.694609       -0.010396
H       -1.003633       -1.213666        0.104038
H        1.033426       -1.142103       -0.113992
6
  Step 83: 83.0 fs
C       -0.010313        0.663286        0.002751
H        0.952005        1.246684        0.082088
H       -0.907761        1.509605        0.007322
C        0.002880       -0.701403       -0.010990
H       -1.001317       -1.175782        0.121158
H        1.046242       -1.126294       -0.112451
6
  Step 84: 84.0 fs
C       -0.015193        0.663954       -0.001494
H        0.995378        1.227233        0.107212
H       -0.934154        1.531257        0.020862
C        0.005344       -0.706012       -0.011455
H       -0.986346       -1.142978        0.133423
H        1.043069       -1.114354       -0.107291
6
  Step 85: 85.0 fs
C       -0.019832        0.666416       -0.005257
H        1.023319        1.199037        0.125996
H       -0.939444        1.522310        0.034838
C        0.007718       -0.707743       -0.011810
H       -0.965353       -1.120739        0.141218
H        1.026406       -1.108157       -0.098825
6
  Step 86: 86.0 fs
C       -0.023782        0.670439       -0.008358
H        1.031746        1.163393        0.137267
H       -0.922914        1.483775        0.048427
C        0.010046       -0.705944       -0.012086
H       -0.946458       -1.113981        0.145426
H        1.001867       -1.110061       -0.087677
6
  Step 87: 87.0 fs
C       -0.026655        0.675380       -0.010683
H        1.020630        1.123432        0.140475
H       -0.887617        1.420202        0.060989
C        0.012062       -0.700172       -0.012296
H       -0.935754       -1.125514        0.146804
H        0.977197       -1.122547       -0.074636
6
  Step 88: 88.0 fs
C       -0.027913        0.680040       -0.012228
H        0.994183        1.083876        0.135859
H       -0.843270        1.342027        0.072465
C        0.013170       -0.690442       -0.012397
H       -0.933881       -1.154538        0.145341
H        0.959224       -1.147116       -0.060442
6
  Step 89: 89.0 fs
C       -0.026567        0.682487       -0.013172
H        0.961562        1.050973        0.124577
H       -0.810627        1.268312        0.084180
C        0.012775       -0.677437       -0.012309
H       -0.936048       -1.196414        0.140245
H        0.950052       -1.182613       -0.045587
6
  Step 90: 90.0 fs
C       -0.021499        0.680615       -0.013898
H        0.936431        1.032039        0.108618
H       -0.817401        1.221637        0.099094
C        0.010675       -0.662555       -0.011954
H       -0.935449       -1.243946        0.130574
H        0.946022       -1.224374       -0.030444
6
  Step 91: 91.0 fs
C       -0.013379        0.674081       -0.014648
H        0.932411        1.033664        0.090044
H       -0.871039        1.207747        0.118411
C        0.007119       -0.647719       -0.011287
H       -0.926901       -1.289432        0.115923
H        0.940793       -1.265473       -0.015545
6
  Step 92: 92.0 fs
C       -0.004820        0.664922       -0.015188
H        0.953484        1.058213        0.069748
H       -0.946952        1.211593        0.138689
C        0.002561       -0.635023       -0.010292
H       -0.908230       -1.326251        0.096604
H        0.929335       -1.299143       -0.001632
6
  Step 93: 93.0 fs
C        0.002459        0.655883       -0.015103
H        0.989110        1.101272        0.047334