6
  Step 0: 0.0 fs
C       -0.000001        0.665095       -0.000000
H        0.925314        1.240814        0.000002
H       -0.925298        1.240819       -0.000004
C       -0.000001       -0.665095        0.000001
H       -0.925310       -1.240826       -0.000000
H        0.925318       -1.240807       -0.000007
6
  Step 1: 1.0 fs
C        0.003723        0.668030       -0.006911
H        0.881400        1.218385        0.045902
H       -0.878242        1.200706        0.012559
C       -0.012001       -0.669099        0.001716
H       -0.896203       -1.199776        0.018373
H        0.991613       -1.206589       -0.014971
6
  Step 2: 2.0 fs
C        0.007456        0.668833       -0.013651
H        0.855359        1.206164        0.090840
H       -0.851760        1.173759        0.025035
C       -0.021048       -0.672029        0.003314
H       -0.885247       -1.172636        0.036294
H        1.043496       -1.169209       -0.029084
6
  Step 3: 3.0 fs
C        0.011238        0.666090       -0.020196
H        0.859372        1.211108        0.135141
H       -0.860991        1.169367        0.037859
C       -0.025073       -0.672990        0.004622
H       -0.905625       -1.169257        0.053787
H        1.072004       -1.129039       -0.041351
6
  Step 4: 4.0 fs
C        0.014811        0.660459       -0.026372
H        0.888963        1.230291        0.177820
H       -0.900610        1.184946        0.050834
C       -0.024174       -0.672173        0.005534
H       -0.950663       -1.186946        0.070365
H        1.073827       -1.088778       -0.050907
6
  Step 5: 5.0 fs
C        0.017667        0.654065       -0.031700
H        0.928254        1.253806        0.215289
H       -0.950576        1.209625        0.062529
C       -0.020052       -0.670547        0.006070
H       -1.000040       -1.214614        0.084548
H        1.050806       -1.052536       -0.057195
6
  Step 6: 6.0 fs
C        0.019384        0.648987       -0.035652
H        0.962256        1.272235        0.243361
H       -0.992401        1.233240        0.071261
C       -0.014721       -0.668959        0.006320
H       -1.035801       -1.241946        0.094735
H        1.010469       -1.025687       -0.060100
6
  Step 7: 7.0 fs
C        0.019727        0.646585       -0.037864
H        0.981719        1.279792        0.259041
H       -1.015039        1.249493        0.075876
C       -0.010120       -0.667742        0.006392
H       -1.047741       -1.262472        0.099863
H        0.966732       -1.014847       -0.060048
6
  Step 8: 8.0 fs
C        0.018615        0.647470       -0.038159
H        0.982705        1.274183        0.260867
H       -1.013760        1.255409        0.075844
C       -0.008039       -0.666758        0.006391
H       -1.032257       -1.272999        0.099464
H        0.937447       -1.026878       -0.057924
6
  Step 9: 9.0 fs
C        0.016109        0.651601       -0.036529
H        0.965323        1.255855        0.248773
H       -0.988527        1.250494        0.071148
C       -0.009356       -0.665734        0.006367
H       -0.991022       -1.272910        0.093581
H        0.933893       -1.065085       -0.054372
6
  Step 10: 10.0 fs
C        0.012398        0.658297       -0.033137
H        0.933804        1.227973        0.224136
H       -0.944007        1.236836        0.062285
C       -0.013145       -0.664636        0.006251
H       -0.931365       -1.264532        0.082792
H        0.950533       -1.124724       -0.049099
6
  Step 11: 11.0 fs
C        0.007793        0.666157       -0.028347
H        0.897814        1.196989        0.189985
H       -0.891146        1.220157        0.050364
C       -0.017047       -0.663464        0.005901
H       -0.867851       -1.254604        0.068315
H        0.971456       -1.194521       -0.041402
6
  Step 12: 12.0 fs
C        0.002752        0.673069       -0.022693
H        0.872785        1.172453        0.150663
H       -0.848306        1.210703        0.037029
C       -0.018360       -0.661799        0.005189
H       -0.821515       -1.254813        0.051790
H        0.982965       -1.262446       -0.031061
6
  Step 13: 13.0 fs
C       -0.002132        0.676897       -0.016657
H        0.874341        1.163519        0.109886
H       -0.835644        1.220228        0.023685
C       -0.015259       -0.659176        0.004100
H       -0.809587       -1.275457        0.034352
H        0.978063       -1.319185       -0.018412
6
  Step 14: 14.0 fs
C       -0.006431        0.677007       -0.010395
H        0.905595        1.172203        0.068548
H       -0.858983        1.252069        0.010477
C       -0.007970       -0.656163        0.002761
H       -0.830402       -1.313591        0.016031
H        0.955366       -1.358765       -0.004165
6
  Step 15: 15.0 fs
C       -0.010078        0.674809       -0.003888
H        0.953195        1.191853        0.026021
H       -0.903556        1.296353       -0.003127
C        0.001720       -0.654250        0.001323
H       -0.867345       -1.354614       -0.003190
H        0.917327       -1.378273        0.010842
6
  Step 16: 16.0 fs
C       -0.013107        0.672339        0.002738
H        0.998910        1.213361       -0.017177
H       -0.948938        1.338905       -0.017062
C        0.011831       -0.654650       -0.000127
H       -0.904338       -1.384582       -0.022664
H        0.869673       -1.378180        0.025810
6
  Step 17: 17.0 fs
C       -0.015479        0.671032        0.009197
H        1.029316        1.230023       -0.059098
H       -0.980777        1.369236       -0.030679
C        0.020610       -0.657607       -0.001554
H       -0.931628       -1.395457       -0.041419
H        0.822118       -1.363510        0.040192
6
  Step 18: 18.0 fs
C       -0.017114        0.671503        0.015156
H        1.037390        1.238250       -0.097310
H       -0.991887        1.381715       -0.043187
C        0.026402       -0.662344       -0.002978
H       -0.944607       -1.384294       -0.058508
H        0.788645       -1.344582        0.053991
6
  Step 19: 19.0 fs
C       -0.017930        0.673751        0.020309
H        1.021132        1.236879       -0.129519
H       -0.980256        1.374394       -0.053917
C        0.027797       -0.667512       -0.004459
H       -0.942007       -1.351633       -0.073140
H        0.783784       -1.333775        0.067847
6
  Step 20: 20.0 fs
C       -0.017847        0.677322        0.024410
H        0.982791        1.226797       -0.153932
H       -0.948271        1.348520       -0.062437
C        0.024445       -0.672115       -0.006022
H       -0.925564       -1.301001       -0.084751
H        0.812633       -1.336158        0.082172
6
  Step 21: 21.0 fs
C       -0.016773        0.681315        0.027335
H        0.929342        1.211197       -0.169679
H       -0.903441        1.309002       -0.068765
C        0.017666       -0.675917       -0.007541
H       -0.901386       -1.239587       -0.093201
H        0.865018       -1.344720        0.095963
6
  Step 22: 22.0 fs
C       -0.014580        0.684222        0.029160
H        0.873914        1.196420       -0.177474
H       -0.860263        1.265524       -0.073704
C        0.009977       -0.678704       -0.008746
H       -0.882119       -1.179078       -0.099108
H        0.923444       -1.348398        0.107217
6
  Step 23: 23.0 fs
C       -0.011147        0.684054        0.030214
H        0.835090        1.191917       -0.179982
H       -0.839043        1.231423       -0.079019
C        0.004150       -0.679853       -0.009323
H       -0.885242       -1.133319       -0.103868
H        0.972685       -1.339868        0.114118
6
  Step 24: 24.0 fs
C       -0.006626        0.679400        0.030852
H        0.828545        1.206161       -0.180174
H       -0.854539        1.216030       -0.086281
C        0.001891       -0.678989       -0.009075
H       -0.920399       -1.110219       -0.108448
H        1.002953       -1.316679        0.115607
6
  Step 25: 25.0 fs
C       -0.001564        0.670854        0.031002
H        0.853858        1.238947       -0.177957
H       -0.901355        1.216191       -0.094832
C        0.002841       -0.676600       -0.008047
H       -0.977389       -1.106498       -0.111951
H        1.009867       -1.280023        0.111415
6
  Step 26: 26.0 fs
C        0.003492        0.660666        0.030210
H        0.895284        1.280532       -0.170171
H       -0.959441        1.221018       -0.102253
C        0.005394       -0.673587       -0.006447
H       -1.035432       -1.113677       -0.112516
H        0.993983       -1.233816        0.101985
6
  Step 27: 27.0 fs
C        0.008199        0.651208        0.028091
H        0.935303        1.319191       -0.154025
H       -1.009896        1.221418       -0.106387
C        0.007824       -0.670596       -0.004508
H       -1.077458       -1.124716       -0.108853
H        0.961479       -1.184832        0.088457
6
  Step 28: 28.0 fs
C        0.012310        0.644208        0.024520
H        0.962118        1.346382       -0.128714
H       -1.040947        1.212831       -0.106097
C        0.008483       -0.667778       -0.002451
H       -1.093852       -1.135380       -0.100570
H        0.925328       -1.142974        0.072592
6
  Step 29: 29.0 fs
C        0.015622        0.640688        0.019592
H        0.969891        1.357444       -0.095069
H       -1.047144        1.194216       -0.101119
C        0.005814       -0.664888       -0.000460
H       -1.081186       -1.143585       -0.087935
H        0.903435       -1.119705        0.056306
6
  Step 30: 30.0 fs
C        0.018008        0.641044        0.013539
H        0.957174        1.350891       -0.054898
H       -1.027882        1.166999       -0.091789
C       -0.000869       -0.661749        0.001385
H       -1.041178       -1.148958       -0.071702
H        0.908048       -1.122170        0.040690
6
  Step 31: 31.0 fs
C        0.019463        0.645019        0.006688
H        0.926509        1.328310       -0.010569
H       -0.987409        1.134917       -0.078967
C       -0.010337       -0.658657        0.003128
H       -0.981565       -1.153329       -0.053068
H        0.934042       -1.147275        0.025712
6
  Step 32: 32.0 fs
C        0.020153        0.651550       -0.000571
H        0.885492        1.295145        0.035430
H       -0.936577        1.104648       -0.064040
C       -0.019781       -0.655971        0.004848
H       -0.917916       -1.162134       -0.033641
H        0.964814       -1.184774        0.011316
6
  Step 33: 33.0 fs
C        0.020410        0.658706       -0.007869
H        0.847941        1.261420        0.081311
H       -0.894084        1.086063       -0.048737
C       -0.026055       -0.653516        0.006563
H       -0.871989       -1.184791       -0.015029
H        0.985589       -1.224231       -0.002008
6
  Step 34: 34.0 fs
C        0.020478        0.664233       -0.015011
H        0.831409        1.239657        0.127037
H       -0.880931        1.089375       -0.034349
C       -0.027160       -0.650980        0.008195
H       -0.859097       -1.228498        0.001901
H        0.988440       -1.258075       -0.013436
6
  Step 35: 35.0 fs
C        0.020091        0.667032       -0.021977
H        0.845906        1.236835        0.173528
H       -0.903797        1.117569       -0.021012
C       -0.023384       -0.648933        0.009605
H       -0.874074       -1.287955        0.016949
H        0.971441       -1.281675       -0.022164
6
  Step 36: 36.0 fs
C        0.018703        0.668004       -0.028570
H        0.884139        1.248182        0.219175
H       -0.947917        1.162977       -0.008516
C       -0.016484       -0.648653        0.010695
H       -0.899399       -1.348273        0.029736
H        0.937038       -1.293015       -0.027572
6
  Step 37: 37.0 fs
C        0.016084        0.668893       -0.034309
H        0.929062        1.262887        0.259298
H       -0.992013        1.213812        0.002792
C       -0.008353       -0.651039        0.011433
H       -0.920499       -1.395945        0.039643
H        0.891682       -1.293045       -0.029368
6
  Step 38: 38.0 fs
C        0.012337        0.670962       -0.038687
H        0.965971        1.272153        0.289069
H       -1.020834        1.260361        0.012214
C       -0.000712       -0.656062        0.011834
H       -0.929703       -1.423013        0.046111
H        0.846443       -1.286617       -0.027672
6
  Step 39: 39.0 fs
C        0.007704        0.674664       -0.041349
H        0.986199        1.271326        0.305274
H       -1.026691        1.296393        0.019091
C        0.004795       -0.662794        0.011940
H       -0.924463       -1.426282        0.048776
H        0.816426       -1.282470       -0.022989
6
  Step 40: 40.0 fs
C        0.002476        0.679830       -0.042108
H        0.986228        1.259060        0.306475
H       -1.007429        1.318572        0.022937
C        0.006941       -0.669937        0.011786
H       -0.905613       -1.406043        0.047474
H        0.814999       -1.289062       -0.015858
6
  Step 41: 41.0 fs
C       -0.003001        0.685866       -0.040933
H        0.966552        1.236380        0.292766
H       -0.965457        1.326228        0.023490
C        0.005734       -0.676584        0.011361
H       -0.877247       -1.365978        0.042234
H        0.843920       -1.306826       -0.006392
6
  Step 42: 42.0 fs
C       -0.008312        0.691782       -0.037962
H        0.931926        1.206582        0.265841
H       -0.908157        1.321922        0.020781
C        0.002692       -0.682267        0.010626
H       -0.848145       -1.314338        0.033327
H        0.891621       -1.327133        0.005518
6
  Step 43: 43.0 fs
C       -0.012975        0.696070       -0.033541
H        0.892864        1.175730        0.229346
H       -0.849469        1.312842        0.015238
C        0.000165       -0.686323        0.009565
H       -0.832813       -1.264428        0.021232
H        0.942280       -1.339853        0.019649
6
  Step 44: 44.0 fs
C       -0.016544        0.696741       -0.028193
H        0.865983        1.152561        0.188527
H       -0.809010        1.310954        0.007568
C        0.000322       -0.687879        0.008219
H       -0.846603       -1.230108        0.006379
H        0.983112       -1.338582        0.035341
6
  Step 45: 45.0 fs
C       -0.018911        0.692196       -0.022376
H        0.867818        1.145361        0.147909
H       -0.802468        1.326720       -0.001834
C        0.003830       -0.686749        0.006689
H       -0.891663       -1.215542       -0.010993
H        1.006221       -1.321036        0.051678
6
  Step 46: 46.0 fs
C       -0.020354        0.682722       -0.016212
H        0.901190        1.155597        0.108353
H       -0.827778        1.358223       -0.013171
C        0.009495       -0.683722        0.005073
H       -0.952142       -1.213423       -0.030238
H        1.008373       -1.288129        0.067677
6
  Step 47: 47.0 fs
C       -0.020999        0.670513       -0.009662
H        0.951604        1.176355        0.068354
H       -0.868198        1.392310       -0.026424
C        0.015446       -0.679785        0.003414
H       -1.007865       -1.214358       -0.050040
H        0.990943       -1.243544        0.082498
6
  Step 48: 48.0 fs
C       -0.020708        0.658157       -0.002840
H        1.000101        1.198327        0.027505
H       -0.906713        1.415667       -0.040890
C        0.019942       -0.675556        0.001706
H       -1.044694       -1.212407       -0.068884
H        0.960785       -1.194046        0.095764
6
  Step 49: 49.0 fs
C       -0.019353        0.647699        0.003965
H        1.033137        1.214561       -0.012840
H       -0.932413        1.420189       -0.055518
C        0.021396       -0.671204       -0.000110
H       -1.055518       -1.205091       -0.085471
H        0.930840       -1.149406        0.107912
6
  Step 50: 50.0 fs
C       -0.016924        0.640524        0.010406
H        1.043769        1.221189       -0.050503
H       -0.940102        1.402729       -0.069292
C        0.018460       -0.666654       -0.002135
H       -1.038532       -1.192263       -0.098852
H        0.916964       -1.120132        0.120153
6
  Step 51: 51.0 fs
C       -0.013476        0.637421        0.016153
H        1.029976        1.216784       -0.083199
H       -0.928904        1.363969       -0.081410
C        0.010839       -0.662016       -0.004404
H       -0.996828       -1.175785       -0.108542
H        0.927544       -1.111728        0.133242
6
  Step 52: 52.0 fs
C       -0.009045        0.638527        0.020943
H        0.993922        1.202157       -0.108944
H       -0.902246        1.308279       -0.091475
C        0.000062       -0.657739       -0.006730
H       -0.939834       -1.160261       -0.114780
H        0.955515       -1.121016        0.145957
6
  Step 53: 53.0 fs
C       -0.003599        0.643108        0.024646
H        0.942593        1.180808       -0.126515
H       -0.869304        1.244487       -0.099838
C       -0.010937       -0.654058       -0.008724
H       -0.885290       -1.154365       -0.118949
H        0.985486       -1.140131        0.155715
6
  Step 54: 54.0 fs
C        0.002862        0.649435        0.027354
H        0.889827        1.160156       -0.136185
H       -0.846153        1.185900       -0.108073
C       -0.018983       -0.650625       -0.009935
H       -0.855716       -1.169634       -0.123420
H        1.004417       -1.161828        0.160257
6
  Step 55: 55.0 fs
C        0.009884        0.655256        0.029410
H        0.856193        1.151734       -0.140341
H       -0.850844        1.145856       -0.118601
C       -0.022344       -0.647241       -0.010090
H       -0.861904       -1.211275       -0.129518
H        1.005329       -1.181317        0.158408
6
  Step 56: 56.0 fs
C        0.016171        0.659165        0.031092
H        0.859253        1.166020       -0.142044
H       -0.888630        1.128632       -0.132293
C       -0.021626       -0.644753       -0.009260
H       -0.891918       -1.269659       -0.135694
H        0.986677       -1.196155        0.150058
6
  Step 57: 57.0 fs
C        0.020501        0.661593        0.032195
H        0.896809        1.202437       -0.141361
H       -0.945603        1.127990       -0.146948
C       -0.018516       -0.644437       -0.007709
H       -0.925681       -1.328224       -0.139249
H        0.951277       -1.206031        0.135990
6
  Step 58: 58.0 fs
C        0.022700        0.664023        0.032191
H        0.948874        1.249378       -0.135323
H       -1.001803        1.135261       -0.159224
C       -0.014610       -0.646989       -0.005721
H       -0.949173       -1.373956       -0.138435
H        0.906213       -1.213049        0.117789
6
  Step 59: 59.0 fs
C        0.023118        0.667621        0.030691
H        0.995155        1.294185       -0.121516
H       -1.042335        1.144355       -0.166607
C       -0.011301       -0.652206       -0.003551
H       -0.955912       -1.399556       -0.132655
H        0.862851       -1.222066        0.097612
6
  Step 60: 60.0 fs
C        0.022111        0.672772        0.027581
H        1.022942        1.328354       -0.099428
H       -1.059123        1.151975       -0.167782
C       -0.009796       -0.659182       -0.001409
H       -0.944583       -1.402065       -0.122075
H        0.834597       -1.239613        0.077646
6
  Step 61: 61.0 fs
C        0.019988        0.679241        0.022959
H        1.026289        1.347443       -0.069940
H       -1.049534        1.156845       -0.162400
C       -0.010640       -0.666841        0.000601
H       -0.917699       -1.381905       -0.107386
H        0.830113       -1.269551        0.059192
6
  Step 62: 62.0 fs
C        0.017093        0.686391        0.017062
H        1.004027        1.349996       -0.034694
H       -1.015543        1.159311       -0.150911
C       -0.013158       -0.674393        0.002503
H       -0.881951       -1.343225       -0.089782
H        0.847093       -1.308456        0.042411
6
  Step 63: 63.0 fs
C        0.013894        0.693253        0.010244
H        0.959323        1.337276        0.004261
H       -0.964458        1.161644       -0.134617
C       -0.015542       -0.681130        0.004392
H       -0.849827       -1.295336       -0.071047
H        0.875059       -1.347429        0.027123
6
  Step 64: 64.0 fs
C        0.010995        0.698464        0.002945
H        0.900859        1.313995        0.044868
H       -0.910232        1.168679       -0.115720
C       -0.015470       -0.686046        0.006352
H       -0.839435       -1.252385       -0.053287
H        0.902574       -1.377648        0.013424
6
  Step 65: 65.0 fs
C        0.008868        0.700265       -0.004412
H        0.844560        1.289501        0.085827
H       -0.871935        1.187496       -0.096827
C       -0.011240       -0.688273        0.008378
H       -0.865107       -1.225847       -0.037923
H        0.921222       -1.393423        0.001687
6
  Step 66: 66.0 fs
C        0.007208        0.697045       -0.011629
H        0.811095        1.276414        0.127607
H       -0.863704        1.222922       -0.079526
C       -0.003129       -0.687985        0.010317
H       -0.921862       -1.214292       -0.024888
H        0.926410       -1.392397       -0.007591
6
  Step 67: 67.0 fs
C        0.004998        0.688644       -0.018726
H        0.812839        1.282198        0.171505
H       -0.882715        1.270976       -0.063640
C        0.006917       -0.686106        0.011980
H       -0.988843       -1.207655       -0.013635
H        0.917370       -1.375225       -0.013927
6
  Step 68: 68.0 fs
C        0.001809        0.676903       -0.025515
H        0.842293        1.301050        0.215798
H       -0.913592        1.320200       -0.048580
C        0.016695       -0.683386        0.013239
H       -1.045965       -1.197815       -0.004078
H        0.897464       -1.345705       -0.016984
6
  Step 69: 69.0 fs
C       -0.001929        0.664449       -0.031491
H        0.881470        1.320152        0.255332
H       -0.941228        1.359062       -0.034404
C        0.024321       -0.680096        0.014039
H       -1.080874       -1.181337        0.003549
H        0.874552       -1.311033       -0.016697
6
  Step 70: 70.0 fs
C       -0.005638        0.653475       -0.036129
H        0.915557        1.329337        0.284930
H       -0.956130        1.379911       -0.021656
C        0.028211       -0.676112        0.014379
H       -1.087950       -1.158055        0.008945
H        0.860287       -1.281110       -0.013263
6
  Step 71: 71.0 fs
C       -0.008873        0.645454       -0.039066
H        0.936206        1.323451        0.301207
H       -0.954134        1.379190       -0.011041
C        0.027362       -0.671317        0.014279
H       -1.066515       -1.129798        0.011852
H        0.864842       -1.264338       -0.006904
6
  Step 72: 72.0 fs
C       -0.011281        0.641247       -0.040110
H        0.939919        1.301123        0.302552
H       -0.935153        1.356770       -0.003189
C        0.021993       -0.666052        0.013750
H       -1.020782       -1.100165        0.012078
H        0.889012       -1.261818        0.002403
6
  Step 73: 73.0 fs
C       -0.012480        0.641089       -0.039224
H        0.926832        1.263823        0.288877
H       -0.903197        1.316094        0.001473
C        0.013800       -0.660989        0.012804
H       -0.961904       -1.075329        0.009495
H        0.923107       -1.267061        0.014710
6
  Step 74: 74.0 fs
C       -0.011973        0.644376       -0.036539
H        0.900915        1.215878        0.261730
H       -0.867833        1.265298        0.002865
C        0.005534       -0.656455        0.011484
H       -0.910260       -1.065020        0.004019
H        0.954414       -1.271748        0.029680
6
  Step 75: 75.0 fs
C       -0.009272        0.649514       -0.032412
H        0.871906        1.165446        0.224851
H       -0.845039        1.217520        0.001358
C        0.000056       -0.652197        0.009878
H       -0.890048       -1.080426       -0.004480
H        0.973487       -1.270007        0.046557
6
  Step 76: 76.0 fs
C       -0.004484        0.654346       -0.027412
H        0.856745        1.124823        0.184117
H       -0.851881        1.186422       -0.002503
C       -0.001516       -0.648185        0.008096
H       -0.908651       -1.124775       -0.015998
H        0.975817       -1.259224        0.064350
6
  Step 77: 77.0 fs
C        0.000936        0.657445       -0.022070
H        0.873850        1.106415        0.145032
H       -0.891804        1.176369       -0.008564
C       -0.000516       -0.645265        0.006221
H       -0.948064       -1.187465       -0.029859
H        0.961601       -1.239738        0.082074
6
  Step 78: 78.0 fs
C        0.005238        0.659101       -0.016551
H        0.925909        1.113270        0.108590
H       -0.949459        1.180609       -0.016889
C        0.000968       -0.644451        0.004292
H       -0.985072       -1.253034       -0.044717
H        0.935333       -1.214666        0.098961
6
  Step 79: 79.0 fs
C        0.008013        0.660682       -0.010790
H        0.994388        1.136998        0.072540
H       -1.004396        1.190011       -0.027199
C        0.001231       -0.646151        0.002314
H       -1.005072       -1.309663       -0.059198
H        0.905625       -1.189751        0.114757
6
  Step 80: 80.0 fs
C        0.009702        0.663362       -0.004847
H        1.056506        1.166546        0.035802
H       -1.041898        1.198425       -0.038898
C       -0.000983       -0.650058        0.000257
H       -1.001858       -1.350351       -0.072221
H        0.884047       -1.172400        0.129951
6
  Step 81: 81.0 fs
C        0.010739        0.667611        0.001054
H        1.096956        1.193917       -0.000731
H       -1.054287        1.202928       -0.051288
C       -0.006337       -0.655533       -0.001912
H       -0.974599       -1.371664       -0.083056
H        0.880132       -1.168354        0.145263
6
  Step 82: 82.0 fs
C        0.011400        0.673303        0.006633
H        1.108257        1.214454       -0.035268
H       -1.039417        1.202941       -0.063749
C       -0.014459       -0.662028       -0.004127
H       -0.926708       -1.373252       -0.091349
H        0.894911       -1.177743        0.160507
6
  Step 83: 83.0 fs
C        0.011938        0.679891        0.011621
H        1.088348        1.225837       -0.065864
H       -0.999829        1.199783       -0.075849
C       -0.023840       -0.669065       -0.006170
H       -0.866547       -1.358758       -0.097274
H        0.920381       -1.195119        0.174059
6
  Step 84: 84.0 fs
C        0.012699        0.686471        0.015810
H        1.039753        1.227708       -0.090780
H       -0.943332        1.196901       -0.087552
C       -0.032178       -0.675755       -0.007708
H       -0.809529       -1.338110       -0.101894
H        0.945682       -1.213428        0.183736
6
  Step 85: 85.0 fs
C        0.014123        0.691757        0.019109
H        0.970626        1.222159       -0.108846
H       -0.884044        1.200404       -0.099557
C       -0.036883       -0.680573       -0.008369
H       -0.777329       -1.327798       -0.107355
H        0.962396       -1.227258        0.187853
6
  Step 86: 86.0 fs
C        0.016347        0.694134        0.021612
H        0.897406        1.215288       -0.120150
H       -0.840198        1.218043       -0.113385
C       -0.036245       -0.682241       -0.007885
H       -0.785581       -1.340684       -0.115536
H        0.965954       -1.233580        0.185598
6
  Step 87: 87.0 fs
C        0.018374        0.692094        0.023561
H        0.844918        1.218133       -0.126727
H       -0.824349        1.254100       -0.130199
C       -0.030782       -0.681073       -0.006308
H       -0.827720       -1.371136       -0.125557
H        0.955555       -1.231650        0.177031
6
  Step 88: 88.0 fs
C        0.018284        0.685253        0.025068
H        0.834104        1.240905       -0.131109
H       -0.833690        1.303425       -0.148883
C       -0.022560       -0.678452       -0.003958
H       -0.882809       -1.401673       -0.134414
H        0.933989       -1.222947        0.163033
6
  Step 89: 89.0 fs
C        0.015303        0.675155        0.025826
H        0.862327        1.280596       -0.132540
H       -0.855157        1.353994       -0.166376
C       -0.013761       -0.675515       -0.001207
H       -0.932676       -1.418276       -0.139513
H        0.907827       -1.211340        0.145261
6
  Step 90: 90.0 fs
C        0.010244        0.664487        0.025322
H        0.908642        1.322417       -0.127545
H       -0.876035        1.394153       -0.179627
C       -0.006230       -0.672797        0.001617
H       -0.966583       -1.414119       -0.139494
H        0.886875       -1.202803        0.125877
6
  Step 91: 91.0 fs
C        0.004199        0.655588        0.023239
H        0.953455        1.352638       -0.113784
H       -0.888202        1.416132       -0.186636
C       -0.001337       -0.670471        0.004271
H       -0.979471       -1.387481       -0.133951
H        0.880837       -1.203371        0.106793
6
  Step 92: 92.0 fs
C       -0.002007        0.649918        0.019535
H        0.984951        1.363554       -0.091004
H       -0.887988        1.416275       -0.186528
C        0.000402       -0.668710        0.006650
H       -0.970388       -1.340049       -0.123128
H        0.893234       -1.215315        0.088850
6
  Step 93: 93.0 fs
C       -0.007731        0.648123        0.014369
H        0.997298        1.352313       -0.060301