6
  Step 0: 0.0 fs
C        0.000002        0.665091        0.000000
H        0.925301        1.240816        0.000004
H       -0.925306        1.240810       -0.000008
C       -0.000003       -0.665090        0.000001
H       -0.925295       -1.240821        0.000001
H        0.925313       -1.240817       -0.000010
6
  Step 1: 1.0 fs
C        0.000384        0.669814       -0.001826
H        0.940851        1.246747        0.012431
H       -0.911182        1.239514       -0.014598
C       -0.009496       -0.669321        0.006828
H       -0.817387       -1.251769       -0.015185
H        0.896222       -1.240369       -0.042214
6
  Step 2: 2.0 fs
C        0.001277        0.673998       -0.003566
H        0.952488        1.249945        0.024271
H       -0.901351        1.241312       -0.028656
C       -0.016351       -0.671206        0.013465
H       -0.746764       -1.283063       -0.030530
H        0.875118       -1.241450       -0.082946
6
  Step 3: 3.0 fs
C        0.002914        0.677246       -0.005134
H        0.957874        1.248698        0.034922
H       -0.898458        1.248249       -0.041717
C       -0.018888       -0.669019        0.019834
H       -0.737112       -1.350704       -0.047267
H        0.867918       -1.244212       -0.120964
6
  Step 4: 4.0 fs
C        0.005134        0.679481       -0.006462
H        0.956718        1.242706        0.043839
H       -0.902063        1.260256       -0.053282
C       -0.018548       -0.664172        0.025667
H       -0.770500       -1.438395       -0.064359
H        0.875591       -1.246876       -0.154862
6
  Step 5: 5.0 fs
C        0.007418        0.680880       -0.007522
H        0.950791        1.233033        0.050621
H       -0.908899        1.275232       -0.062762
C       -0.017329       -0.659402        0.030508
H       -0.817703       -1.517776       -0.078789
H        0.893838       -1.246245       -0.182766
6
  Step 6: 6.0 fs
C        0.009060        0.681659       -0.008316
H        0.943495        1.221776        0.055081
H       -0.914617        1.290169       -0.069563
C       -0.016117       -0.656580        0.033967
H       -0.860762       -1.571360       -0.088336
H        0.915948       -1.239232       -0.202594
6
  Step 7: 7.0 fs
C        0.009397        0.681932       -0.008866
H        0.938845        1.211417        0.057231
H       -0.915673        1.302395       -0.073235
C       -0.015127       -0.656557        0.035800
H       -0.890898       -1.591797       -0.092003
H        0.935999       -1.224190       -0.212694
6
  Step 8: 8.0 fs
C        0.008029        0.681688       -0.009183
H        0.939843        1.203850        0.057151
H       -0.910336        1.310295       -0.073547
C       -0.014400       -0.659499        0.035904
H       -0.903883       -1.577123       -0.089536
H        0.950275       -1.201280       -0.212231
6
  Step 9: 9.0 fs
C        0.004972        0.680834       -0.009261
H        0.946975        1.199533        0.054858
H       -0.899033        1.313619       -0.070518
C       -0.014007       -0.665074        0.034299
H       -0.898037       -1.528490       -0.081128
H        0.957716       -1.172374       -0.201331
6
  Step 10: 10.0 fs
C        0.000678        0.679224       -0.009072
H        0.957905        1.197378        0.050274
H       -0.884288        1.313523       -0.064419
C       -0.014026       -0.672483        0.031130
H       -0.874541       -1.450418       -0.067438
H        0.959913       -1.140808       -0.181058
6
  Step 11: 11.0 fs
C       -0.004091        0.676662       -0.008580
H        0.968619        1.195478        0.043337
H       -0.870217        1.312305       -0.055725
C       -0.014267       -0.680326        0.026675
H       -0.840363       -1.353283       -0.049871
H        0.960606       -1.110946       -0.153195
6
  Step 12: 12.0 fs
C       -0.008510        0.672965       -0.007772
H        0.975189        1.192096        0.034140
H       -0.861268        1.312569       -0.044997
C       -0.013658       -0.686410        0.021337
H       -0.814256       -1.257213       -0.030850
H        0.964355       -1.087433       -0.119809
6
  Step 13: 13.0 fs
C       -0.011941        0.668102       -0.006676
H        0.975060        1.186346        0.022974
H       -0.860337        1.315810       -0.032756
C       -0.010038       -0.688195        0.015524
H       -0.827156       -1.188830       -0.012860
H        0.974202       -1.074169       -0.082710
6
  Step 14: 14.0 fs
C       -0.014115        0.662365       -0.005367
H        0.967687        1.178525        0.010293
H       -0.867347        1.321283       -0.019428
C       -0.002466       -0.684851        0.009430
H       -0.892897       -1.158687        0.003976
H        0.990060       -1.073479       -0.043213
6
  Step 15: 15.0 fs
C       -0.015164        0.656361       -0.003946
H        0.954648        1.170102       -0.003340
H       -0.879416        1.326125       -0.005431
C        0.006815       -0.678050        0.003142
H       -0.984528       -1.152422        0.020697
H        1.008787       -1.085658       -0.002345
6
  Step 16: 16.0 fs
C       -0.015506        0.650807       -0.002516
H        0.939278        1.163395       -0.017325
H       -0.892494        1.326749        0.008725
C        0.015229       -0.669890       -0.003128
H       -1.068236       -1.154210        0.037049
H        1.024840       -1.108817        0.038752
6
  Step 17: 17.0 fs
C       -0.015635        0.646364       -0.001157
H        0.925725        1.161009       -0.031111
H       -0.903136        1.320342        0.022434
C        0.021525       -0.661988       -0.009086
H       -1.124689       -1.155891        0.052089
H        1.032063       -1.139536        0.078553
6
  Step 18: 18.0 fs
C       -0.015895        0.643566        0.000071
H        0.917399        1.165016       -0.044241
H       -0.909500        1.305673        0.035078
C        0.025330       -0.655562       -0.014429
H       -1.145813       -1.154074        0.064925
H        1.025667       -1.173900        0.115199
6
  Step 19: 19.0 fs
C       -0.016302        0.642781        0.001119
H        0.915434        1.176108       -0.056286
H       -0.911764        1.283382        0.046121
C        0.026604       -0.651488       -0.018877
H       -1.129607       -1.147611        0.074845
H        1.003389       -1.208327        0.146767
6
  Step 20: 20.0 fs
C       -0.016497        0.644160        0.001927
H        0.918208        1.193288       -0.066753
H       -0.912156        1.255897        0.055195
C        0.025409       -0.650244       -0.022200
H       -1.078021       -1.136652        0.081333
H        0.965967       -1.240217        0.171622
6
  Step 21: 21.0 fs
C       -0.015854        0.647573        0.002417
H        0.922244        1.214330       -0.075072
H       -0.914502        1.226950        0.062123
C        0.022001       -0.651770       -0.024254
H       -0.998042       -1.123047        0.084221
H        0.917234       -1.268398        0.188738
6
  Step 22: 22.0 fs
C       -0.013751        0.652627        0.002511
H        0.923810        1.236685       -0.080715
H       -0.922819        1.200426        0.066888
C        0.017197       -0.655289       -0.025043
H       -0.905996       -1.112160        0.084216
H        0.864105       -1.293403        0.197904
6
  Step 23: 23.0 fs
C       -0.009886        0.658770        0.002155
H        0.920268        1.258275       -0.083351
H       -0.939115        1.178896        0.069490
C        0.012904       -0.659119       -0.024804
H       -0.832811       -1.115792        0.083785
H        0.815849       -1.317374        0.199765
6
  Step 24: 24.0 fs
C       -0.004487        0.665444        0.001349
H        0.910812        1.277965       -0.082930
H       -0.961753        1.162751        0.069787
C        0.011488       -0.661150       -0.023923
H       -0.814195       -1.148927        0.086474
H        0.781908       -1.343075        0.195465
6
  Step 25: 25.0 fs
C        0.001732        0.672193        0.000155
H        0.896663        1.295801       -0.079694
H       -0.985838        1.150693        0.067492
C        0.012880       -0.660827       -0.022481
H       -0.852865       -1.210268        0.092214
H        0.768198       -1.371714        0.185829
6
  Step 26: 26.0 fs
C        0.007832        0.678634       -0.001331
H        0.880734        1.312904       -0.074135
H       -1.005523        1.140991        0.062377
C        0.014717       -0.659664       -0.020170
H       -0.917812       -1.278995        0.097043
H        0.774262       -1.400946        0.170730
6
  Step 27: 27.0 fs
C        0.012933        0.684373       -0.003013
H        0.866651        1.330861       -0.066861
H       -1.016209        1.132463        0.054456
C        0.015338       -0.659340       -0.016733
H       -0.981088       -1.336250        0.098034
H        0.794184       -1.425304        0.149484
6
  Step 28: 28.0 fs
C        0.016437        0.689001       -0.004811
H        0.857316        1.350724       -0.058448
H       -1.015733        1.124832        0.044026
C        0.014295       -0.660841       -0.012126
H       -1.027577       -1.372166        0.094298
H        0.820228       -1.438864        0.121802
6
  Step 29: 29.0 fs
C        0.018182        0.692172       -0.006676
H        0.853611        1.371982       -0.049329
H       -1.004757        1.118756        0.031614
C        0.011699       -0.664494       -0.006477
H       -1.050297       -1.382871        0.086034
H        0.845821       -1.437612        0.088301
6
  Step 30: 30.0 fs
C        0.018448        0.693636       -0.008577
H        0.854205        1.392310       -0.039806
H       -0.986716        1.115721        0.017890
C        0.007797       -0.670152       -0.000021
H       -1.046448       -1.367706        0.073910
H        0.866641       -1.420136        0.050393
6
  Step 31: 31.0 fs
C        0.017831        0.693218       -0.010484
H        0.856506        1.408320       -0.030158
H       -0.967189        1.117808        0.003561
C        0.002856       -0.677284        0.006939
H       -1.016323       -1.328400        0.058841
H        0.880871       -1.387651        0.009983
6
  Step 32: 32.0 fs
C        0.016996        0.690802       -0.012355
H        0.858016        1.416725       -0.020720
H       -0.952268        1.127062       -0.010734
C       -0.002727       -0.684957        0.014063
H       -0.964643       -1.269888        0.042008
H        0.889178       -1.343702       -0.030888
6
  Step 33: 33.0 fs
C        0.016364        0.686375       -0.014124
H        0.857324        1.415295       -0.011888
H       -0.945795        1.144357       -0.024469
C       -0.008028       -0.691698        0.021010
H       -0.905012       -1.202904        0.024772
H        0.894409       -1.293589       -0.070398
6
  Step 34: 34.0 fs
C        0.015906        0.680118       -0.015715
H        0.854520        1.403332       -0.004063
H       -0.947306        1.168424       -0.037196
C       -0.011056       -0.695430        0.027509
H       -0.865365       -1.146273        0.008064
H        0.900605       -1.243387       -0.107220
6
  Step 35: 35.0 fs
C        0.015185        0.672444       -0.017054
H        0.851209        1.381780        0.002412
H       -0.952565        1.195909       -0.048461
C       -0.009462       -0.694246        0.033454
H       -0.877950       -1.119666       -0.008693
H        0.911360       -1.198656       -0.140519
6
  Step 36: 36.0 fs
C        0.013602        0.663975       -0.018085
H        0.850182        1.353023        0.007280
H       -0.956099        1.222553       -0.057763
C       -0.003621       -0.688229        0.038789
H       -0.940993       -1.123707       -0.026301
H        0.928274       -1.163319       -0.169716
6
  Step 37: 37.0 fs
C        0.010638        0.655462       -0.018778
H        0.854647        1.320238        0.010351
H       -0.953558        1.244566       -0.064610
C        0.003533       -0.679216        0.043271
H       -1.019653       -1.143151       -0.043320
H        0.950043       -1.139057       -0.194047
6
  Step 38: 38.0 fs
C        0.006027        0.647710       -0.019123
H        0.866983        1.286314        0.011473
H       -0.942805        1.259483       -0.068622
C        0.009740       -0.669168        0.046584
H       -1.084222       -1.165174       -0.057593
H        0.972528       -1.125374       -0.212215
6
  Step 39: 39.0 fs
C       -0.000098        0.641541       -0.019128
H        0.887431        1.252885        0.010520
H       -0.924262        1.266613       -0.069619
C        0.014065       -0.659702        0.048471
H       -1.119691       -1.183060       -0.067627
H        0.990443       -1.120445       -0.222645
6
  Step 40: 40.0 fs
C       -0.007150        0.637689       -0.018802
H        0.913614        1.220174        0.007387
H       -0.900960        1.267307       -0.067662
C        0.016272       -0.652120        0.048776
H       -1.120372       -1.193799       -0.072589
H        0.999338       -1.122112       -0.224012
6
  Step 41: 41.0 fs
C       -0.014168        0.636600       -0.018153
H        0.941324        1.187750        0.002047
H       -0.878330        1.265030       -0.063045
C        0.016367       -0.647359        0.047442
H       -1.085734       -1.196433       -0.072077
H        0.996797       -1.128505       -0.215653
6
  Step 42: 42.0 fs
C       -0.020024        0.638267       -0.017183
H        0.965941        1.155490       -0.005402
H       -0.863140        1.264742       -0.056212
C        0.014466       -0.645859        0.044516
H       -1.019335       -1.191728       -0.066064
H        0.982945       -1.138371       -0.197760
6
  Step 43: 43.0 fs
C       -0.023776        0.642287       -0.015907
H        0.983793        1.124188       -0.014684
H       -0.860736        1.270840       -0.047599
C        0.010965       -0.647384        0.040163
H       -0.930940       -1.183388       -0.055127
H        0.960664       -1.151224       -0.171391
6
  Step 44: 44.0 fs
C       -0.025042        0.648095       -0.014369
H        0.993013        1.095596       -0.025369
H       -0.871846        1.284550       -0.037498
C        0.006974       -0.650797        0.034695
H       -0.841218       -1.180957       -0.040848
H        0.935429       -1.167310       -0.138289
6
  Step 45: 45.0 fs
C       -0.024135        0.655147       -0.012638
H        0.993943        1.072192       -0.036928
H       -0.891749        1.303067       -0.026105
C        0.004544       -0.654007        0.028527
H       -0.782968       -1.201887       -0.025655
H        0.914295       -1.187234       -0.100483
6
  Step 46: 46.0 fs
C       -0.021877        0.662953       -0.010797
H        0.989158        1.056838       -0.048842
H       -0.912816        1.321384       -0.013709
C        0.005032       -0.655227        0.021962
H       -0.779044       -1.259442       -0.010550
H        0.903538       -1.211071       -0.059823
6
  Step 47: 47.0 fs
C       -0.019228        0.671069       -0.008917
H        0.982803        1.052295       -0.060684
H       -0.928037        1.334896       -0.000784
C        0.007038       -0.655006        0.015088
H       -0.814988       -1.341443        0.005701
H        0.905635       -1.237310       -0.017698
6
  Step 48: 48.0 fs
C       -0.016957        0.679044       -0.007051
H        0.978894        1.060444       -0.072097
H       -0.933025        1.340793        0.012049
C        0.008441       -0.655213        0.008052
H       -0.861871       -1.422986        0.023448
H        0.917681       -1.262319        0.024695
6
  Step 49: 49.0 fs
C       -0.015421        0.686398       -0.005245
H        0.979275        1.081455       -0.082681
H       -0.926609        1.338436        0.024141
C        0.008283       -0.657213        0.001139
H       -0.900713       -1.486379        0.041610
H        0.933324       -1.281319        0.065839
6
  Step 50: 50.0 fs
C       -0.014455        0.692622       -0.003557
H        0.982561        1.113425       -0.091883
H       -0.910975        1.329376        0.034948
C        0.006495       -0.661540       -0.005317
H       -0.922755       -1.522932        0.058799
H        0.946232       -1.290270        0.103814
6
  Step 51: 51.0 fs
C       -0.013456        0.697185       -0.002064
H        0.984970        1.152765       -0.099010
H       -0.891391        1.317106        0.044142
C        0.003324       -0.668121       -0.010996
H       -0.924787       -1.529285        0.073769
H        0.952140       -1.286980        0.136622
6
  Step 52: 52.0 fs
C       -0.011627        0.699551       -0.000859
H        0.982323        1.195109       -0.103368
H       -0.875213        1.306358        0.051629
C       -0.000942       -0.676468       -0.015631
H       -0.906685       -1.505238        0.085515
H        0.949537       -1.271406        0.162581
6
  Step 53: 53.0 fs
C       -0.008347        0.699303       -0.000030
H        0.971787        1.236240       -0.104441
H       -0.869094        1.301142        0.057459
C       -0.005995       -0.685731       -0.019036
H       -0.871414       -1.453701        0.093373
H        0.939788       -1.245621        0.180634
6
  Step 54: 54.0 fs
C       -0.003530        0.696337        0.000374
H        0.952674        1.272739       -0.102012
H       -0.875430        1.302345        0.061566
C       -0.011286       -0.694582       -0.021166
H       -0.827438       -1.382782        0.097477
H        0.926910       -1.213541        0.190556
6
  Step 55: 55.0 fs
C        0.002268        0.690926        0.000352
H        0.926521        1.302398       -0.096209
H       -0.891100        1.306970        0.063644
C       -0.015606       -0.701011       -0.022195
H       -0.793181       -1.309182        0.099680
H        0.916890       -1.180461        0.192986
6
  Step 56: 56.0 fs
C        0.008088        0.683592       -0.000055
H        0.896760        1.324459       -0.087473
H       -0.909805        1.309897        0.063289
C       -0.016966       -0.702600       -0.022527
H       -0.796669       -1.256374        0.103961
H        0.915738       -1.152019        0.189116
6
  Step 57: 57.0 fs
C        0.012936        0.674956       -0.000788
H        0.868035        1.339598       -0.076472
H       -0.925502        1.306344        0.060241
C       -0.014331       -0.698288       -0.022450
H       -0.852329       -1.235709        0.112893
H        0.926736       -1.132796        0.180049
6
  Step 58: 58.0 fs
C        0.016039        0.665700       -0.001792
H        0.845098        1.349423       -0.063919
H       -0.934308        1.293265        0.054491
C       -0.009341       -0.689533       -0.021760
H       -0.938759       -1.234147        0.123593
H        0.948560       -1.125147        0.166280
6
  Step 59: 59.0 fs
C        0.016979        0.656554       -0.003016
H        0.831432        1.355408       -0.050435
H       -0.934959        1.269769        0.046275
C       -0.004169       -0.678588       -0.020088
H       -1.024002       -1.234467        0.131623
H        0.975340       -1.128732        0.147646
6
  Step 60: 60.0 fs
C        0.015777        0.648300       -0.004424
H        0.828205        1.357925       -0.036502
H       -0.928857        1.237213        0.036051
C        0.000134       -0.667356       -0.017230
H       -1.087437       -1.227456        0.134439
H        0.998980       -1.141168        0.123857
6
  Step 61: 61.0 fs
C        0.012898        0.641717       -0.005984
H        0.834129        1.356067       -0.022512
H       -0.919999        1.199123        0.024417
C        0.003333       -0.657361       -0.013176
H       -1.119315       -1.209990        0.131125
H        1.012270       -1.159326        0.095112
6
  Step 62: 62.0 fs
C        0.009175        0.637450       -0.007664
H        0.846225        1.348355       -0.008888
H       -0.914689        1.160890        0.012037
C        0.005487       -0.649818       -0.008047
H       -1.116316       -1.182114        0.121666
H        1.010558       -1.180270        0.062278
6
  Step 63: 63.0 fs
C        0.005565        0.635877       -0.009422
H        0.860987        1.333797        0.003856
H       -0.919765        1.128450       -0.000489
C        0.006713       -0.645537       -0.002060
H       -1.079379       -1.145814        0.106583
H        0.992328       -1.201810        0.026785
6
  Step 64: 64.0 fs
C        0.002776        0.637103       -0.011194
H        0.875394        1.312661        0.015138
H       -0.938981        1.106006       -0.012719
C        0.007230       -0.644730        0.004496
H       -1.014583       -1.105345        0.086961
H        0.959399       -1.222927       -0.009617
6
  Step 65: 65.0 fs
C        0.000940        0.641003       -0.012902
H        0.887615        1.286753        0.024390
H       -0.969911        1.094338       -0.024290
C        0.007695       -0.646778        0.011270
H       -0.937019       -1.068707        0.064575
H        0.916873       -1.244044       -0.045221
6
  Step 66: 66.0 fs
C       -0.000363        0.647190       -0.014471
H        0.897375        1.259255        0.031172
H       -1.004784        1.091406       -0.034793
C        0.009657       -0.650110        0.017890
H       -0.875553       -1.049239        0.041656
H        0.872676       -1.267092       -0.078722
6
  Step 67: 67.0 fs
C       -0.001796        0.655018       -0.015831
H        0.905809        1.234138        0.035264
H       -1.034415        1.094310       -0.043774
C        0.014950       -0.652746        0.024112
H       -0.863478       -1.061156        0.019372
H        0.835834       -1.294784       -0.109454
6
  Step 68: 68.0 fs
C       -0.003928        0.663716       -0.016926
H        0.914647        1.215210        0.036654
H       -1.051660        1.100763       -0.050806
C        0.023043       -0.653945        0.029868
H       -0.903329       -1.103984       -0.002773
H        0.813142       -1.328764       -0.137152
6
  Step 69: 69.0 fs
C       -0.007025        0.672552       -0.017717
H        0.924870        1.205036        0.035414
H       -1.052752        1.109509       -0.055562
C        0.031139       -0.654622        0.034979
H       -0.964794       -1.161232       -0.024206
H        0.805946       -1.367240       -0.161157
6
  Step 70: 70.0 fs
C       -0.010921        0.680874       -0.018175
H        0.935687        1.204263        0.031613
H       -1.037751        1.120394       -0.057871
C        0.037149       -0.655985        0.039117
H       -1.019936       -1.216859       -0.043126
H        0.810110       -1.404595       -0.179946
6
  Step 71: 71.0 fs
C       -0.015019        0.688093       -0.018272
H        0.944627        1.211745        0.025320
H       -1.010634        1.134382       -0.057771
C        0.040307       -0.658821        0.041953
H       -1.054141       -1.261314       -0.057907
H        0.819453       -1.433804       -0.191588
6
  Step 72: 72.0 fs
C       -0.018402        0.693630       -0.017987
H        0.948660        1.225260        0.016682
H       -0.978870        1.153520       -0.055499
C        0.040507       -0.663408        0.043259
H       -1.061591       -1.289784       -0.067482
H        0.829014       -1.449312       -0.194593
6
  Step 73: 73.0 fs
C       -0.020099        0.696928       -0.017310
H        0.945545        1.242281        0.005981
H       -0.951536        1.180375       -0.051398
C        0.037849       -0.669614        0.042926
H       -1.041078       -1.300181       -0.071230
H        0.836141       -1.448160       -0.188329
6
  Step 74: 74.0 fs
C       -0.019515        0.697588       -0.016260
H        0.934732        1.260534       -0.006355
H       -0.935061        1.216165       -0.045749
C        0.032515       -0.676970        0.040966
H       -0.994698       -1.292481       -0.068924
H        0.840670       -1.430187       -0.173120
6
  Step 75: 75.0 fs
C       -0.016784        0.695553       -0.014887
H        0.917644        1.278306       -0.019803
H       -0.929545        1.258671       -0.038637
C        0.024881       -0.684648        0.037521
H       -0.928944       -1.269449       -0.060873
H        0.844870       -1.397860       -0.150160
6
  Step 76: 76.0 fs
C       -0.012686        0.691133       -0.013267
H        0.897377        1.294543       -0.033817
H       -0.929556        1.302169       -0.030070
C        0.015886       -0.691325        0.032877
H       -0.858529       -1.239142       -0.048323
H        0.853032       -1.355771       -0.121267
6
  Step 77: 77.0 fs
C       -0.008242        0.684843       -0.011472
H        0.877924        1.308695       -0.047899
H       -0.928347        1.339675       -0.020170
C        0.007474       -0.695061        0.027444
H       -0.810111       -1.217772       -0.033656
H        0.870119       -1.309429       -0.088422
6
  Step 78: 78.0 fs
C       -0.004336        0.677282       -0.009573
H        0.863032        1.320295       -0.061630
H       -0.921226        1.365412       -0.009239
C        0.001987       -0.693978        0.021588
H       -0.812282       -1.224191       -0.018973
H        0.898883       -1.263227       -0.053200
6
  Step 79: 79.0 fs
C       -0.001525        0.669152       -0.007640
H        0.855164        1.328451       -0.074633
H       -0.906386        1.375825        0.002301
C       -0.000344       -0.688154        0.015443
H       -0.863536       -1.259299       -0.003844
H        0.937453       -1.219229       -0.016705
6
  Step 80: 80.0 fs
C        0.000006        0.661250       -0.005756
H        0.855059        1.331627       -0.086483
H       -0.884863        1.369984        0.013986
C       -0.001360       -0.679682        0.009096
H       -0.933172       -1.305032        0.012740
H        0.979559       -1.177628        0.020020
6
  Step 81: 81.0 fs
C        0.000415        0.654343       -0.004009
H        0.861953        1.327929       -0.096676
H       -0.860305        1.349768        0.025380
C       -0.002472       -0.670774        0.002769
H       -0.993716       -1.344530        0.030449
H        1.017020       -1.138048        0.055633
6
  Step 82: 82.0 fs
C        0.000154        0.648993       -0.002489
H        0.874183        1.315758       -0.104676
H       -0.838780        1.319976        0.036165
C       -0.004130       -0.663015       -0.003235
H       -1.030450       -1.368591        0.048232
H        1.042853       -1.100721        0.088456
6
  Step 83: 83.0 fs
C       -0.000130        0.645439       -0.001288
H        0.889774        1.294464       -0.109996
H       -0.828112        1.287866        0.046205
C       -0.006314       -0.657424       -0.008620
H       -1.037303       -1.373352        0.064984
H        1.052841       -1.066809        0.116799
6
  Step 84: 84.0 fs
C        0.000166        0.643659       -0.000490
H        0.906861        1.264734       -0.112275
H       -0.835202        1.260833        0.055513
C       -0.008910       -0.654551       -0.013131
H       -1.013124       -1.358104        0.079735
H        1.046055       -1.038315        0.139241
6
  Step 85: 85.0 fs
C        0.001208        0.643604       -0.000148
H        0.924033        1.228673       -0.111337
H       -0.861606        1.242766        0.063944
C       -0.011801       -0.654461       -0.016589
H       -0.960799       -1.324841        0.091783
H        1.024981       -1.017882        0.154913
6
  Step 86: 86.0 fs
C        0.002528        0.645296       -0.000255
H        0.940629        1.189621       -0.107228
H       -0.901305        1.232457        0.070920
C       -0.014691       -0.656581       -0.018925
H       -0.889369       -1.279804        0.101027
H        0.995368       -1.008472        0.163672
6
  Step 87: 87.0 fs
C        0.003280        0.648669       -0.000759
H        0.956716        1.151604       -0.100228
H       -0.943718        1.225951        0.075584
C       -0.016671       -0.659451       -0.020269
H       -0.818719       -1.236768        0.108921
H        0.965667       -1.012977        0.166132
6
  Step 88: 88.0 fs
C        0.002697        0.653430       -0.001595
H        0.972606        1.118576       -0.090779
H       -0.978662        1.219684        0.077197
C       -0.015941       -0.660791       -0.021007
H       -0.780554       -1.217750        0.119428
H        0.944807       -1.033442        0.163303
6
  Step 89: 89.0 fs
C        0.000387        0.659157       -0.002708
H        0.988023        1.093649       -0.079358
H       -0.999201        1.211810        0.075413
C       -0.011320       -0.659029       -0.021478
H       -0.796564       -1.237543        0.136040
H        0.938425       -1.070013        0.155905
6
  Step 90: 90.0 fs
C       -0.003579        0.665453       -0.004050
H        1.001507        1.078719       -0.066444
H       -1.002352        1.202227        0.070286
C       -0.004274       -0.655204       -0.021433
H       -0.850817       -1.283585        0.155796
H        0.945688       -1.119977        0.143813
6
  Step 91: 91.0 fs
C       -0.008693        0.671913       -0.005583
H        1.010626        1.074499       -0.052541
H       -0.989270        1.192470        0.062275
C        0.003015       -0.651538       -0.020332
H       -0.912774       -1.332652        0.172615
H        0.959541       -1.177509        0.126250
6
  Step 92: 92.0 fs
C       -0.014102        0.678018       -0.007277
H        1.012853        1.080776       -0.038221
H       -0.965336        1.185660        0.052170
C        0.009428       -0.649682       -0.017842
H       -0.962159       -1.369311        0.182499
H        0.970820       -1.235117        0.102662
6
  Step 93: 93.0 fs
C       -0.018727        0.683097       -0.009108
H        1.006497        1.096764       -0.024138