6
  Step 0: 0.0 fs
C        0.000001        0.665093       -0.000001
H        0.925306        1.240829        0.000010
H       -0.925321        1.240816       -0.000004
C        0.000001       -0.665091        0.000003
H       -0.925305       -1.240822       -0.000003
H        0.925292       -1.240837       -0.000018
6
  Step 1: 1.0 fs
C       -0.002923        0.658015       -0.000845
H        0.967835        1.277783       -0.000630
H       -0.883420        1.195635        0.019486
C       -0.004507       -0.654213       -0.004030
H       -0.947573       -1.278921        0.009537
H        0.951637       -1.239758        0.029652
6
  Step 2: 2.0 fs
C       -0.003296        0.651566       -0.001685
H        0.996093        1.304717       -0.001202
H       -0.860825        1.163758        0.038597
C       -0.008856       -0.645270       -0.007886
H       -0.960064       -1.309195        0.018654
H        0.969506       -1.234236        0.057907
6
  Step 3: 3.0 fs
C        0.000385        0.646240       -0.002561
H        1.003244        1.316404       -0.001655
H       -0.871472        1.154881        0.057559
C       -0.012815       -0.639744       -0.011369
H       -0.957713       -1.326547        0.026861
H        0.973969       -1.222073        0.083097
6
  Step 4: 4.0 fs
C        0.007608        0.643078       -0.003450
H        0.987710        1.311099       -0.001940
H       -0.909901        1.166537        0.075959
C       -0.016180       -0.638484       -0.014314
H       -0.939731       -1.328892        0.033722
H        0.964019       -1.203428        0.103772
6
  Step 5: 5.0 fs
C        0.016412        0.643187       -0.004230
H        0.952436        1.290213       -0.002008
H       -0.957114        1.187949        0.092124
C       -0.018815       -0.641525       -0.016604
H       -0.909232       -1.317229        0.038955
H        0.942559       -1.180708        0.118997
6
  Step 6: 6.0 fs
C        0.024572        0.646767       -0.004767
H        0.905899        1.259239       -0.001791
H       -0.995839        1.209231        0.104162
C       -0.020594       -0.647936       -0.018206
H       -0.873732       -1.296198        0.042555
H        0.916350       -1.158339        0.128607
6
  Step 7: 7.0 fs
C        0.029841        0.652779       -0.004985
H        0.864276        1.229358       -0.001203
H       -1.015826        1.224509        0.110765
C       -0.021303       -0.655913       -0.019189
H       -0.845388       -1.274310        0.044958
H        0.895323       -1.142211        0.133309
6
  Step 8: 8.0 fs
C        0.030058        0.659386       -0.004863
H        0.848951        1.215478       -0.000132
H       -1.012771        1.231253        0.111326
C       -0.020608       -0.663356       -0.019696
H       -0.837910       -1.261590        0.046946
H        0.889268       -1.137832        0.134271
6
  Step 9: 9.0 fs
C        0.024331        0.665219       -0.004420
H        0.871282        1.225277        0.001471
H       -0.986980        1.229322        0.105862
C       -0.018329       -0.668897       -0.019808
H       -0.857967       -1.263226        0.048997
H        0.902262       -1.147544        0.132144
6
  Step 10: 10.0 fs
C        0.014168        0.670201       -0.003699
H        0.919620        1.250759        0.003453
H       -0.943646        1.221041        0.095038
C       -0.014738       -0.672516       -0.019449
H       -0.898610       -1.275188        0.050680
H        0.929495       -1.169015        0.126451
6
  Step 11: 11.0 fs
C        0.002540        0.674604       -0.002789
H        0.971974        1.277652        0.005536
H       -0.894505        1.212366        0.080285
C       -0.010350       -0.674989       -0.018462
H       -0.944919       -1.288620        0.051039
H        0.960523       -1.196776        0.116169
6
  Step 12: 12.0 fs
C       -0.007416        0.678059       -0.001827
H        1.011518        1.295723        0.007470
H       -0.857972        1.213435        0.063624
C       -0.005619       -0.677067       -0.016742
H       -0.983188       -1.296010        0.049320
H        0.984930       -1.224908        0.100677
6
  Step 13: 13.0 fs
C       -0.013309        0.679803       -0.000921
H        1.029344        1.300063        0.009083
H       -0.851203        1.234233        0.046658
C       -0.000887       -0.679146       -0.014289
H       -1.004685       -1.293279        0.045203
H        0.995661       -1.248797        0.080155
6
  Step 14: 14.0 fs
C       -0.014615        0.679728       -0.000062
H        1.022418        1.289343        0.010268
H       -0.874799        1.274498        0.029520
C        0.003559       -0.681305       -0.011192
H       -1.005561       -1.279358        0.038725
H        0.989678       -1.265657        0.055476
6
  Step 15: 15.0 fs
C       -0.012589        0.678603        0.000807
H        0.992195        1.264849        0.010969
H       -0.912652        1.322287        0.011766
C        0.007454       -0.683372       -0.007601
H       -0.986196       -1.255571        0.030194
H        0.967909       -1.274736        0.027958
6
  Step 16: 16.0 fs
C       -0.009022        0.677193        0.001688
H        0.945008        1.230773        0.011176
H       -0.947203        1.363911       -0.006376
C        0.010586       -0.684885       -0.003707
H       -0.951500       -1.225605        0.020134
H        0.935183       -1.277439       -0.000901
6
  Step 17: 17.0 fs
C       -0.005766        0.675606        0.002535
H        0.894217        1.195491        0.010949
H       -0.967340        1.390103       -0.024068
C        0.012921       -0.685051        0.000297
H       -0.911751       -1.195745        0.009181
H        0.899804       -1.277328       -0.029788
6
  Step 18: 18.0 fs
C       -0.004793        0.673278        0.003283
H        0.860422        1.171555        0.010396
H       -0.968144        1.396275       -0.040278
C        0.014695       -0.682847        0.004262
H       -0.882074       -1.174416       -0.002122
H        0.872019       -1.279413       -0.057841
6
  Step 19: 19.0 fs
C       -0.007529        0.669624        0.003887
H        0.861642        1.169747        0.009583
H       -0.949154        1.381350       -0.054059
C        0.016277       -0.677568        0.008098
H       -0.876229       -1.168848       -0.013552
H        0.859713       -1.287591       -0.084680
6
  Step 20: 20.0 fs
C       -0.013438        0.664964        0.004330
H        0.895961        1.188893        0.008425
H       -0.914056        1.347535       -0.064710
C        0.017679       -0.669574        0.011716
H       -0.896298       -1.179788       -0.025001
H        0.864042       -1.301676       -0.109770
6
  Step 21: 21.0 fs
C       -0.020142        0.660296        0.004632
H        0.944014        1.217445        0.006813
H       -0.871883        1.301421       -0.072042
C        0.018446       -0.660382        0.014936
H       -0.931086       -1.200717       -0.035959
H        0.879299       -1.317047       -0.131812
6
  Step 22: 22.0 fs
C       -0.024788        0.656197        0.004870
H        0.986592        1.243935        0.004743
H       -0.838415        1.255334       -0.076749
C        0.018124       -0.651898        0.017510
H       -0.965759       -1.222921       -0.045525
H        0.897076       -1.327454       -0.148951
6
  Step 23: 23.0 fs
C       -0.024914        0.652592        0.005169
H        1.011929        1.261376        0.002297
H       -0.832916        1.224581       -0.080342
C        0.016525       -0.645721        0.019217
H       -0.989314       -1.239629       -0.052827
H        0.910353       -1.328054       -0.159493
6
  Step 24: 24.0 fs
C       -0.019543        0.649681        0.005590
H        1.014730        1.266641       -0.000409
H       -0.863820        1.216360       -0.083656
C        0.013667       -0.642908        0.019915
H       -0.995881       -1.246914       -0.057249
H        0.915107       -1.316636       -0.162384
6
  Step 25: 25.0 fs
C       -0.009836        0.648521        0.006026
H        0.994323        1.259313       -0.003245
H       -0.918638        1.223097       -0.085502
C        0.009653       -0.643903        0.019561
H       -0.983992       -1.243469       -0.058503
H        0.910665       -1.293838       -0.157418
6
  Step 26: 26.0 fs
C        0.001952        0.650064        0.006313
H        0.954602        1.241731       -0.006100
H       -0.976174        1.232207       -0.084006
C        0.004614       -0.648411        0.018211
H       -0.956189       -1.230510       -0.056633
H        0.899764       -1.263014       -0.145275
6
  Step 27: 27.0 fs
C        0.013446        0.654207        0.006361
H        0.905840        1.220264       -0.008938
H       -1.020107        1.235188       -0.078105
C       -0.001192       -0.655314        0.016027
H       -0.919852       -1.212305       -0.052136
H        0.888397       -1.229866       -0.127395
6
  Step 28: 28.0 fs
C        0.022212        0.659718        0.006165
H        0.866112        1.206340       -0.011883
H       -1.041471        1.228500       -0.067679
C       -0.007196       -0.662819        0.013245
H       -0.887815       -1.196549       -0.045959
H        0.884572       -1.201267       -0.105603
6
  Step 29: 29.0 fs
C        0.026064        0.664874        0.005774
H        0.855673        1.212886       -0.015190
H       -1.036867        1.211870       -0.053227
C       -0.012422       -0.669011        0.010098
H       -0.875583       -1.192707       -0.039206
H        0.894554       -1.182678       -0.081369
6
  Step 30: 30.0 fs
C        0.024457        0.668705        0.005231
H        0.879788        1.242942       -0.018866
H       -1.007638        1.187369       -0.035645
C       -0.015961       -0.672768        0.006722
H       -0.891525       -1.206150       -0.032437
H        0.918432       -1.175664       -0.055381
6
  Step 31: 31.0 fs
C        0.019090        0.671428        0.004556
H        0.922825        1.285336       -0.022386
H       -0.960653        1.159591       -0.016085
C       -0.017653       -0.674271        0.003153
H       -0.928555       -1.233039       -0.025375
H        0.949489       -1.177924       -0.027946
6
  Step 32: 32.0 fs
C        0.012740        0.673394        0.003757
H        0.964456        1.325476       -0.025076
H       -0.910400        1.136661        0.004240
C       -0.017902       -0.674467       -0.000560
H       -0.970478       -1.263828       -0.017591
H        0.978110       -1.185412        0.000349
6
  Step 33: 33.0 fs
C        0.008267        0.674358        0.002837
H        0.991073        1.353360       -0.026494
H       -0.878371        1.129930        0.024553
C       -0.017150       -0.674283       -0.004301
H       -1.002840       -1.289643       -0.009014
H        0.996133       -1.194415        0.028374
6
  Step 34: 34.0 fs
C        0.007566        0.673926        0.001756
H        0.996362        1.363999       -0.026441
H       -0.881044        1.147897        0.044875
C       -0.015702       -0.674310       -0.007907
H       -1.016918       -1.304816        0.000095
H        0.998708       -1.202381        0.054707
6
  Step 35: 35.0 fs
C        0.010332        0.672459        0.000517
H        0.979227        1.355933       -0.024922
H       -0.913156        1.187154        0.064972
C       -0.013801       -0.674808       -0.011214
H       -1.009314       -1.306797        0.009330
H        0.984795       -1.208190        0.077969
6
  Step 36: 36.0 fs
C        0.014668        0.670866       -0.000764
H        0.943028        1.330809       -0.022085
H       -0.954261        1.235021        0.083402
C       -0.011697       -0.675727       -0.014075
H       -0.980988       -1.295609        0.018247
H        0.957107       -1.212209        0.097107
6
  Step 37: 37.0 fs
C        0.018497        0.669699       -0.001930
H        0.896321        1.294176       -0.018210
H       -0.986439        1.279222        0.098324
C       -0.009598       -0.676662       -0.016398
H       -0.937515       -1.274034        0.026476
H        0.921937       -1.216314        0.111622
6
  Step 38: 38.0 fs
C        0.019869        0.668699       -0.002851
H        0.854536        1.256808       -0.013677
H       -0.999823        1.311774        0.108307
C       -0.007500       -0.676799       -0.018163
H       -0.890167       -1.248312        0.033897
H        0.888436       -1.223674        0.121674
6
  Step 39: 39.0 fs
C        0.017009        0.667054       -0.003448
H        0.837516        1.232763       -0.008834
H       -0.990778        1.328474        0.112539
C       -0.004997       -0.675074       -0.019434
H       -0.855488       -1.227977        0.040851
H        0.866003       -1.237614        0.127877
6
  Step 40: 40.0 fs
C        0.009261        0.664375       -0.003700
H        0.856271        1.229666       -0.003801
H       -0.960095        1.328008        0.110779
C       -0.001464       -0.670790       -0.020279
H       -0.848652       -1.221893        0.047925
H        0.859919       -1.259247        0.130602
6
  Step 41: 41.0 fs
C       -0.001949        0.661392       -0.003636
H        0.901353        1.241068        0.001388
H       -0.912839        1.312032        0.103397
C        0.003190       -0.664424       -0.020660
H       -0.871652       -1.231004        0.055081
H        0.868651       -1.285835        0.129415
6
  Step 42: 42.0 fs
C       -0.013857        0.659096       -0.003329
H        0.952955        1.254336        0.006517
H       -0.859926        1.286753        0.091585
C        0.008274       -0.657567       -0.020414
H       -0.911787       -1.247468        0.061240
H        0.885527       -1.311673        0.123352
6
  Step 43: 43.0 fs
C       -0.023450        0.657655       -0.002913
H        0.994956        1.260236        0.011252
H       -0.819408        1.264569        0.077441
C        0.012932       -0.651966       -0.019379
H       -0.952811       -1.261721        0.065074
H        0.902799       -1.330663        0.111650
6
  Step 44: 44.0 fs
C       -0.028174        0.656476       -0.002531
H        1.018170        1.254532        0.015282
H       -0.811268        1.260595        0.063154
C        0.016550       -0.648848       -0.017494
H       -0.982830       -1.267331        0.065714
H        0.914636       -1.338458        0.094268
6
  Step 45: 45.0 fs
C       -0.027177        0.655437       -0.002195
H        1.018876        1.236540        0.018373
H       -0.840895        1.279491        0.049272
C        0.018742       -0.648815       -0.014801
H       -0.995356       -1.261467        0.062835
H        0.918122       -1.333247        0.071879
6
  Step 46: 46.0 fs
C       -0.021736        0.655444       -0.001804
H        0.997588        1.208092        0.020359
H       -0.892688        1.309826        0.034876
C        0.019236       -0.651889       -0.011423
H       -0.988318       -1.244136        0.056553
H        0.913499       -1.315934        0.045694
6
  Step 47: 47.0 fs
C       -0.013988        0.657308       -0.001295
H        0.959633        1.173757        0.021175
H       -0.945626        1.336436        0.019470
C        0.017840       -0.657491       -0.007539
H       -0.963681       -1.217830        0.047333
H        0.904145       -1.290017        0.017190
6
  Step 48: 48.0 fs
C       -0.006152        0.660872       -0.000685
H        0.917233        1.141775        0.020920
H       -0.984896        1.349573        0.003432
C        0.014576       -0.664414       -0.003357
H       -0.928441       -1.187927        0.035985
H        0.896138       -1.261068       -0.012218
6
  Step 49: 49.0 fs
C       -0.000512        0.665071       -0.000039
H        0.889766        1.123750        0.019879
H       -1.002696        1.345195       -0.012413
C        0.009968       -0.671001        0.000922
H       -0.895691       -1.162994        0.023504
H        0.896374       -1.235162       -0.041498
6
  Step 50: 50.0 fs
C        0.001183        0.668677        0.000584
H        0.894392        1.129284        0.018307
H       -0.996297        1.323066       -0.027145
C        0.005180       -0.675627        0.005136
H       -0.882191       -1.153188        0.010698
H        0.908689       -1.216232       -0.069987
6
  Step 51: 51.0 fs
C       -0.000911        0.671223        0.001167
H        0.929297        1.157209        0.016082
H       -0.967607        1.286026       -0.039934
C        0.001361       -0.677439        0.009164
H       -0.897760       -1.164448       -0.002223
H        0.931074       -1.204589       -0.096938
6
  Step 52: 52.0 fs
C       -0.004769        0.672905        0.001728
H        0.975481        1.196680        0.012898
H       -0.924279        1.240483       -0.050267
C       -0.001307       -0.676765        0.012862
H       -0.935277       -1.193128       -0.015260
H        0.956781       -1.197884       -0.121095
6
  Step 53: 53.0 fs
C       -0.007719        0.673689        0.002314
H        1.013767        1.236204        0.008664
H       -0.881883        1.197619       -0.058278
C       -0.003369       -0.674620        0.016030
H       -0.977424       -1.229366       -0.027950
H        0.977930       -1.193174       -0.140869
6
  Step 54: 54.0 fs
C       -0.007208        0.673037        0.003014
H        1.032504        1.267985        0.003528
H       -0.862161        1.171883       -0.064945
C       -0.005354       -0.672004        0.018457
H       -1.008928       -1.263601       -0.039448
H        0.988547       -1.188365       -0.154806
6
  Step 55: 55.0 fs
C       -0.001940        0.670688        0.003886
H        1.026942        1.287767       -0.002224
H       -0.878580        1.171909       -0.071145
C       -0.007538       -0.669647        0.019981
H       -1.020835       -1.289225       -0.048903
H        0.985717       -1.182642       -0.161930
6
  Step 56: 56.0 fs
C        0.007058        0.667432        0.004846
H        0.997404        1.293962       -0.008265
H       -0.921518        1.192134       -0.076131
C       -0.010040       -0.668000        0.020516
H       -1.009837       -1.302585       -0.055674
H        0.969852       -1.176537       -0.161928
6
  Step 57: 57.0 fs
C        0.017393        0.664456        0.005722
H        0.948992        1.287786       -0.014291
H       -0.969266        1.219639       -0.078145
C       -0.012932       -0.667209        0.020062
H       -0.977102       -1.302586       -0.059367
H        0.944660       -1.171844       -0.155207
6
  Step 58: 58.0 fs
C        0.026621        0.662349        0.006392
H        0.892640        1.274499       -0.020124
H       -1.004694        1.243849       -0.075931
C       -0.016189       -0.667033        0.018703
H       -0.928467       -1.291004       -0.059934
H        0.916721       -1.171357       -0.142824
6
  Step 59: 59.0 fs
C        0.032484        0.660803        0.006823
H        0.845688        1.264448       -0.025871
H       -1.018887        1.258701       -0.069092
C       -0.019450       -0.666782        0.016607
H       -0.875698       -1.273551       -0.057850
H        0.894125       -1.178190       -0.126170
6
  Step 60: 60.0 fs
C        0.033183        0.659044        0.007048
H        0.826418        1.269713       -0.031924
H       -1.008976        1.261468       -0.057860
C       -0.021748       -0.665462        0.013976
H       -0.836436       -1.260332       -0.054174
H        0.883263       -1.194212       -0.106384
6
  Step 61: 61.0 fs
C        0.028403        0.656904        0.007100
H        0.840330        1.293546       -0.038362
H       -0.976604        1.251897       -0.042892
C       -0.021802       -0.662361        0.010978
H       -0.827486       -1.261760       -0.050003
H        0.885588       -1.218479       -0.084009
6
  Step 62: 62.0 fs
C        0.019731        0.655250        0.006961
H        0.875417        1.325857       -0.044416
H       -0.928044        1.232455       -0.025153
C       -0.019097       -0.657928        0.007672
H       -0.851602       -1.279129       -0.045418
H        0.897117       -1.247069       -0.059257
6
  Step 63: 63.0 fs
C        0.009746        0.654970        0.006607
H        0.914616        1.352964       -0.048998
H       -0.876002        1.209813       -0.005846
C       -0.014277       -0.653738        0.004058
H       -0.895285       -1.302616       -0.039603
H        0.911066       -1.274601       -0.032554
6
  Step 64: 64.0 fs
C        0.001263        0.656064        0.006032
H        0.945428        1.365618       -0.051326
H       -0.840275        1.195718        0.013996
C       -0.008369       -0.651408        0.000192
H       -0.941201       -1.320359       -0.031958
H        0.921105       -1.296176       -0.004840
6
  Step 65: 65.0 fs
C       -0.003441        0.657893        0.005210
H        0.961022        1.359805       -0.051043
H       -0.839647        1.202056        0.034061
C       -0.002222       -0.651876       -0.003792
H       -0.976716       -1.324672       -0.022481
H        0.923222       -1.308593        0.022559
6
  Step 66: 66.0 fs
C       -0.003968        0.660286        0.004121
H        0.958991        1.335362       -0.048121
H       -0.874596        1.229212        0.054320
C        0.003514       -0.655332       -0.007721
H       -0.994854       -1.312479       -0.011573
H        0.916335       -1.310837        0.048212
6
  Step 67: 67.0 fs
C       -0.001814        0.663703        0.002847
H        0.940824        1.295322       -0.042795
H       -0.926612        1.265121        0.073769
C        0.008268       -0.661340       -0.011419
H       -0.993035       -1.284093        0.000168
H        0.902438       -1.304245        0.070906
6
  Step 68: 68.0 fs
C        0.001002        0.668252        0.001548
H        0.912888        1.246404       -0.035543
H       -0.975456        1.296745        0.090659
C        0.011542       -0.668915       -0.014744
H       -0.972706       -1.242663        0.012084
H        0.886396       -1.292343        0.089912
6
  Step 69: 69.0 fs
C        0.002534        0.673205        0.000382
H        0.887857        1.199441       -0.027066
H       -1.007967        1.316062        0.103423
C        0.013081       -0.676620       -0.017611
H       -0.940348       -1.194440        0.023629
H        0.875013       -1.280151        0.105145
6
  Step 70: 70.0 fs
C        0.001062        0.677350       -0.000539
H        0.882320        1.166922       -0.018018
H       -1.017650        1.319644        0.111047
C        0.013236       -0.682817       -0.020004
H       -0.908791       -1.148954        0.034647
H        0.874366       -1.272254        0.116913
6
  Step 71: 71.0 fs
C       -0.004127        0.679825       -0.001180
H        0.905457        1.155675       -0.008637
H       -1.002895        1.307205        0.113070
C        0.013114       -0.686094       -0.021948
H       -0.895482       -1.117432        0.045625
H        0.886414       -1.270546        0.125311
6
  Step 72: 72.0 fs
C       -0.011922        0.680613       -0.001572
H        0.948858        1.161941        0.001112
H       -0.966786        1.281266        0.109634
C        0.013830       -0.685846       -0.023440
H       -0.911943       -1.107163        0.057218
H        0.907670       -1.273471        0.129821
6
  Step 73: 73.0 fs
C       -0.019949        0.679978       -0.001780
H        0.994490        1.176735        0.011015
H       -0.918625        1.248126        0.101683
C        0.015375       -0.682554       -0.024358
H       -0.952185       -1.116482        0.068990
H        0.931292       -1.277439        0.129518
6
  Step 74: 74.0 fs
C       -0.025483        0.677770       -0.001922
H        1.027174        1.192401        0.020570
H       -0.875646        1.219072        0.091155
C        0.016830       -0.677318       -0.024509
H       -0.998393       -1.137752        0.079332
H        0.950409       -1.278827        0.123626
6
  Step 75: 75.0 fs
C       -0.026097        0.673469       -0.002134
H        1.038417        1.204262        0.029203
H       -0.859043        1.207959        0.080403
C        0.017287       -0.671252       -0.023741
H       -1.034126       -1.163149        0.086567
H        0.960179       -1.275194        0.111891
6
  Step 76: 76.0 fs
C       -0.020945        0.667159       -0.002429
H        1.025595        1.210073        0.036390
H       -0.877681        1.220653        0.070321
C        0.016199       -0.665292       -0.022009
H       -1.049435       -1.186949        0.089581
H        0.958562       -1.265734        0.094657
6
  Step 77: 77.0 fs
C       -0.011470        0.660127       -0.002660
H        0.990917        1.209605        0.041741
H       -0.918305        1.248400        0.059807
C        0.013292       -0.660193       -0.019364
H       -1.040252       -1.205559        0.087862
H        0.946488       -1.251372        0.072801
6
  Step 78: 78.0 fs
C       -0.000192        0.653946       -0.002687
H        0.941671        1.205131        0.045097
H       -0.960112        1.277185        0.047676
C        0.008453       -0.656480       -0.015937
H       -1.007115       -1.217221        0.081407
H        0.927739       -1.234640        0.047552
6
  Step 79: 79.0 fs
C        0.010383        0.649500       -0.002481
H        0.891022        1.202401        0.046665
H       -0.988372        1.296821        0.033718
C        0.001777       -0.654319       -0.011912
H       -0.955249       -1.222341        0.070729
H        0.908363       -1.219202        0.020233
6
  Step 80: 80.0 fs
C        0.018017        0.646800       -0.002097
H        0.856321        1.210326        0.047024
H       -0.995972        1.302170        0.018451
C       -0.006164       -0.653420       -0.007511
H       -0.895901       -1.224642        0.056932
H        0.894985       -1.208737       -0.008024
6
  Step 81: 81.0 fs
C        0.021299        0.645556       -0.001609
H        0.850168        1.235588        0.046641
H       -0.981293        1.291768        0.002712
C       -0.014048       -0.653092       -0.002970
H       -0.846565       -1.232153        0.041530
H        0.891924       -1.205172       -0.036381
6
  Step 82: 82.0 fs
C        0.020425        0.645948       -0.001032
H        0.870085        1.274882        0.045255
H       -0.947032        1.267104       -0.012587
C       -0.020138       -0.652625        0.001503
H       -0.825058       -1.254510        0.025712
H        0.899164       -1.207668       -0.064016
6
  Step 83: 83.0 fs
C        0.016958        0.648491       -0.000340
H        0.902297        1.316640        0.042163
H       -0.900819        1.233111       -0.026632
C       -0.023455       -0.652042        0.005759
H       -0.836320       -1.293887        0.009722
H        0.912782       -1.213277       -0.089798
6
  Step 84: 84.0 fs
C        0.013061        0.653194        0.000492
H        0.932936        1.349450        0.036951
H       -0.857028        1.199450       -0.038997
C       -0.024308       -0.652307        0.009650
H       -0.868604       -1.340590       -0.006466
H        0.927198       -1.218563       -0.112265
6
  Step 85: 85.0 fs
C        0.011029        0.659209        0.001503
H        0.952986        1.366267        0.029655
H       -0.835876        1.179687       -0.049966
C       -0.023509       -0.654460        0.012993
H       -0.905449       -1.381227       -0.022344
H        0.937528       -1.220964       -0.129967
6
  Step 86: 86.0 fs
C        0.012328        0.665500        0.002726
H        0.958126        1.364321        0.020623
H       -0.851654        1.183392       -0.060160
C       -0.021735       -0.658944        0.015609
H       -0.934671       -1.406106       -0.037018
H        0.940819       -1.219348       -0.141787
6
  Step 87: 87.0 fs
C        0.016385        0.671766        0.004097
H        0.947990        1.344264        0.010375
H       -0.897535        1.206765       -0.069214
C       -0.019489       -0.665564        0.017368
H       -0.949528       -1.410406       -0.049589
H        0.936642       -1.214145       -0.147178
6
  Step 88: 88.0 fs
C        0.021163        0.678078        0.005450
H        0.926354        1.310118       -0.000515
H       -0.952574        1.237550       -0.075672
C       -0.017196       -0.673619        0.018214
H       -0.947561       -1.393225       -0.059340
H        0.927165       -1.207203       -0.146259
6
  Step 89: 89.0 fs
C        0.024453        0.684023        0.006638
H        0.902113        1.269807       -0.011571
H       -0.998196        1.265129       -0.078216
C       -0.015211       -0.682028        0.018168
H       -0.930078       -1.356969       -0.065841
H        0.916745       -1.201400       -0.139766
6
  Step 90: 90.0 fs
C        0.024345        0.688619        0.007588
H        0.888769        1.234290       -0.022604
H       -1.023403        1.283407       -0.076213
C       -0.013626       -0.689436        0.017330
H       -0.903038       -1.307753       -0.069130
H        0.910670       -1.199885       -0.128773
6
  Step 91: 91.0 fs
C        0.019641        0.690895        0.008297
H        0.898099        1.212723       -0.033737
H       -1.023387        1.289756       -0.069653
C       -0.011962       -0.694383        0.015854
H       -0.878264       -1.255799       -0.069955
H        0.912754       -1.204810       -0.114242
6
  Step 92: 92.0 fs
C        0.010606        0.690591        0.008770
H        0.929766        1.206016       -0.044812
H       -0.998163        1.284001       -0.058986
C       -0.009116       -0.695608        0.013920
H       -0.871815       -1.213657       -0.069674
H        0.923107       -1.216281       -0.096707
6
  Step 93: 93.0 fs
C       -0.000979        0.688094        0.008976
H        0.970792        1.207623       -0.054947