6
  Step 0: 0.0 fs
C       -0.000001        0.665090       -0.000001
H        0.925310        1.240814        0.000003
H       -0.925299        1.240811        0.000006
C       -0.000000       -0.665090        0.000001
H       -0.925299       -1.240815       -0.000002
H        0.925303       -1.240811        0.000001
6
  Step 1: 1.0 fs
C        0.012913        0.665431       -0.006757
H        0.830117        1.220248        0.046548
H       -0.935726        1.216062        0.011256
C       -0.003936       -0.665955        0.001443
H       -0.955554       -1.215092        0.020383
H        0.954273       -1.214975       -0.014909
6
  Step 2: 2.0 fs
C        0.022180        0.663832       -0.013412
H        0.774006        1.223726        0.093349
H       -0.944589        1.190984        0.022038
C       -0.007524       -0.666797        0.002814
H       -0.981343       -1.189619        0.039840
H        0.977414       -1.189781       -0.029038
6
  Step 3: 3.0 fs
C        0.025354        0.658868       -0.020137
H        0.782366        1.269578        0.144108
H       -0.951061        1.165812        0.031741
C       -0.010449       -0.667579        0.004038
H       -0.999361       -1.165085        0.057327
H        0.990563       -1.166559       -0.041483
6
  Step 4: 4.0 fs
C        0.024219        0.652212       -0.026595
H        0.831734        1.340589        0.196257
H       -0.955414        1.141689        0.039809
C       -0.012474       -0.668346        0.005046
H       -1.008100       -1.142845        0.071945
H        0.991906       -1.147300       -0.051441
6
  Step 5: 5.0 fs
C        0.021584        0.646498       -0.032022
H        0.887504        1.408489        0.241642
H       -0.958477        1.120488        0.045913
C       -0.013459       -0.669147        0.005795
H       -1.008019       -1.124780        0.083114
H        0.982224       -1.134488       -0.058382
6
  Step 6: 6.0 fs
C        0.019032        0.643268       -0.035879
H        0.930352        1.456801        0.274243
H       -0.961214        1.104350        0.049968
C       -0.013374       -0.669912        0.006257
H       -1.001315       -1.112981        0.090598
H        0.964774       -1.130893       -0.062102
6
  Step 7: 7.0 fs
C        0.017245        0.643113       -0.037907
H        0.952230        1.478784        0.291127
H       -0.964440        1.095078        0.052033
C       -0.012306       -0.670430        0.006421
H       -0.991299       -1.109363        0.094415
H        0.944660       -1.139196       -0.062686
6
  Step 8: 8.0 fs
C        0.016488        0.646095       -0.038007
H        0.950332        1.472471        0.291164
H       -0.968448        1.093605        0.052179
C       -0.010415       -0.670427        0.006290
H       -0.981334       -1.115141        0.094692
H        0.927094       -1.161170       -0.060388
6
  Step 9: 9.0 fs
C        0.016795        0.651958       -0.036179
H        0.924745        1.438575        0.274375
H       -0.972785        1.099763        0.050411
C       -0.007850       -0.669714        0.005872
H       -0.973562       -1.130294        0.091516
H        0.915051       -1.196576       -0.055443
6
  Step 10: 10.0 fs
C        0.017933        0.660126       -0.032530
H        0.878857        1.380824        0.242062
H       -0.976349        1.112403        0.046665
C       -0.004692       -0.668321        0.005183
H       -0.968085       -1.153246        0.084852
H        0.907864       -1.242343       -0.047966
6
  Step 11: 11.0 fs
C        0.019114        0.669473       -0.027377
H        0.822951        1.308907        0.197887
H       -0.977767        1.129793        0.040897
C       -0.000985       -0.666514        0.004249
H       -0.963170       -1.181012        0.074626
H        0.902063       -1.292854       -0.038033
6
  Step 12: 12.0 fs
C        0.018430        0.677923       -0.021376
H        0.781194        1.243451        0.149232
H       -0.975825        1.150174        0.033187
C        0.003175       -0.664678        0.003111
H       -0.956361       -1.209828        0.060908
H        0.893683       -1.341428       -0.025854
6
  Step 13: 13.0 fs
C        0.012983        0.682770       -0.015318
H        0.790246        1.212810        0.104607
H       -0.969883        1.172257        0.023826
C        0.007596       -0.663201        0.001829
H       -0.945760       -1.236019        0.044091
H        0.880290       -1.381962       -0.011923
6
  Step 14: 14.0 fs
C        0.002247        0.683269       -0.009341
H        0.859893        1.223326        0.064282
H       -0.960512        1.195545        0.013282
C        0.012010       -0.662448        0.000479
H       -0.930858       -1.256750        0.024925
H        0.861648       -1.409938        0.003021
6
  Step 15: 15.0 fs
C       -0.010409        0.681281       -0.003183
H        0.954724        1.251706        0.023638
H       -0.949654        1.220274        0.002029
C        0.016110       -0.662665       -0.000864
H       -0.912844       -1.270475        0.004338
H        0.839807       -1.423062        0.018177
6
  Step 16: 16.0 fs
C       -0.021681        0.678471        0.003090
H        1.039833        1.277433       -0.017789
H       -0.939447        1.246813       -0.009608
C        0.019592       -0.663824       -0.002143
H       -0.894433       -1.277013       -0.016788
H        0.818824       -1.421530        0.032897
6
  Step 17: 17.0 fs
C       -0.029860        0.675613        0.009216
H        1.097574        1.291181       -0.057801
H       -0.930860        1.274836       -0.021451
C        0.022149       -0.665574       -0.003322
H       -0.879285       -1.277402       -0.037745
H        0.804286       -1.408030        0.046811
6
  Step 18: 18.0 fs
C       -0.034326        0.673071        0.014914
H        1.121188        1.289796       -0.093831
H       -0.923208        1.302802       -0.033342
C        0.023458       -0.667354       -0.004390
H       -0.870972       -1.273499       -0.058017
H        0.802295       -1.387049        0.059873
6
  Step 19: 19.0 fs
C       -0.035005        0.671121        0.019927
H        1.109060        1.272758       -0.123564
H       -0.914752        1.328133       -0.045018
C        0.023247       -0.668647       -0.005348
H       -0.871691       -1.267305       -0.077203
H        0.817276       -1.362911        0.072192
6
  Step 20: 20.0 fs
C       -0.032107        0.670002        0.024017
H        1.062684        1.241017       -0.145023
H       -0.903820        1.347971       -0.056082
C        0.021430       -0.669253       -0.006188
H       -0.881242       -1.260285       -0.094845
H        0.849386       -1.337490        0.083656
6
  Step 21: 21.0 fs
C       -0.026121        0.669804        0.026992
H        0.987562        1.197448       -0.156806
H       -0.889754        1.360016       -0.066057
C        0.018182       -0.669351       -0.006877
H       -0.896941       -1.253112       -0.110283
H        0.893544       -1.309606        0.093644
6
  Step 22: 22.0 fs
C       -0.018145        0.670196        0.028786
H        0.897541        1.149043       -0.159055
H       -0.873404        1.363106       -0.074471
C        0.013873       -0.669302       -0.007363
H       -0.914624       -1.245894       -0.122678
H        0.941238       -1.276758        0.101115
6
  Step 23: 23.0 fs
C       -0.010567        0.670018        0.029659
H        0.822695        1.110993       -0.155646
H       -0.857096        1.357531       -0.080959
C        0.008941       -0.669372       -0.007586
H       -0.930085       -1.238657       -0.131199
H        0.983723       -1.237412        0.104980
6
  Step 24: 24.0 fs
C       -0.006887        0.667381        0.030244
H        0.806574        1.105526       -0.154646
H       -0.844174        1.345024       -0.085357
C        0.003811       -0.669619       -0.007504
H       -0.940220       -1.231722       -0.135241
H        1.014312       -1.192026        0.104477
6
  Step 25: 25.0 fs
C       -0.007996        0.661736        0.030748
H        0.861223        1.138585       -0.158491
H       -0.838345        1.328512       -0.087795
C       -0.001132       -0.669967       -0.007104
H       -0.943628       -1.225930       -0.134610
H        1.029290       -1.143000        0.099364
6
  Step 26: 26.0 fs
C       -0.010721        0.654865        0.030568
H        0.948810        1.189508       -0.159512
H       -0.842444        1.311317       -0.088611
C       -0.005580       -0.670295       -0.006404
H       -0.940724       -1.222648       -0.129570
H        1.028298       -1.094277        0.089968
6
  Step 27: 27.0 fs
C       -0.012209        0.648651        0.029242
H        1.032263        1.237971       -0.151659
H       -0.856749        1.295791       -0.088054
C       -0.009360       -0.670414       -0.005445
H       -0.933419       -1.223529       -0.120726
H        1.014574       -1.050916        0.077081
6
  Step 28: 28.0 fs
C       -0.011389        0.644285        0.026674
H        1.092476        1.273461       -0.133504
H       -0.878454        1.282409       -0.086040
C       -0.012519       -0.670074       -0.004287
H       -0.924399       -1.230116       -0.108828
H        0.994884       -1.018503        0.061803
6
  Step 29: 29.0 fs
C       -0.008265        0.642507        0.022945
H        1.121326        1.291523       -0.105947
H       -0.902662        1.270103       -0.082224
C       -0.015332       -0.669040       -0.002999
H       -0.916077       -1.243266       -0.094578
H        0.978213       -1.002238        0.045250
6
  Step 30: 30.0 fs
C       -0.003244        0.643738        0.018211
H        1.115852        1.290567       -0.070773
H       -0.924186        1.257388       -0.076251
C       -0.018094       -0.667225       -0.001643
H       -0.909651       -1.262601       -0.078504
H        0.971890       -1.005506        0.028246
6
  Step 31: 31.0 fs
C        0.003174        0.648054        0.012691
H        1.076298        1.270847       -0.030191
H       -0.939050        1.243334       -0.067975
C       -0.020795       -0.664791       -0.000269
H       -0.904797       -1.286277       -0.061002
H        0.977180       -1.028407        0.011256
6
  Step 32: 32.0 fs
C        0.010389        0.655083        0.006655
H        1.007011        1.235042        0.013266
H       -0.945212        1.227964       -0.057529
C       -0.023020       -0.662148        0.001076
H       -0.900093       -1.311255       -0.042467
H        0.988513       -1.067410       -0.005334
6
  Step 33: 33.0 fs
C        0.017331        0.663797        0.000407
H        0.920945        1.190862        0.057082
H       -0.942839        1.212317       -0.045299
C       -0.024196       -0.659795        0.002326
H       -0.893895       -1.334006       -0.023434
H        0.997346       -1.116592       -0.020910
6
  Step 34: 34.0 fs
C        0.021800        0.672189       -0.005866
H        0.847224        1.155445        0.100466
H       -0.934256        1.198305       -0.031865
C       -0.023857       -0.658151        0.003398
H       -0.885224       -1.351316       -0.004642
H        0.996556       -1.169348       -0.034592
6
  Step 35: 35.0 fs
C        0.020795        0.677615       -0.012339
H        0.826761        1.152766        0.147193
H       -0.923699        1.188464       -0.017904
C       -0.021742       -0.657489        0.004205
H       -0.874307       -1.360903        0.012999
H        0.982331       -1.219736       -0.045443
6
  Step 36: 36.0 fs
C        0.014196        0.679135       -0.019129
H        0.867897        1.187766        0.200269
H       -0.916729        1.185584       -0.004020
C       -0.017806       -0.657979        0.004671
H       -0.862767       -1.361800        0.028568
H        0.954386       -1.263199       -0.052680
6
  Step 37: 37.0 fs
C        0.005564        0.678209       -0.025549
H        0.934738        1.239117        0.252718
H       -0.918133        1.191786        0.009432
C       -0.012210       -0.659665        0.004754
H       -0.853455       -1.354385        0.041344
H        0.915773       -1.297061       -0.055913
6
  Step 38: 38.0 fs
C       -0.002130        0.676386       -0.030775
H        0.994690        1.287031        0.295471
H       -0.928743        1.206966        0.022264
C       -0.005335       -0.662335        0.004452
H       -0.849883       -1.339987        0.050905
H        0.872610       -1.321053       -0.055233
6
  Step 39: 39.0 fs
C       -0.007722        0.674613       -0.034303
H        1.032016        1.321535        0.323181
H       -0.944552        1.228095        0.034131
C        0.002188       -0.665506        0.003796
H       -0.855185       -1.320207        0.057057
H        0.833397       -1.337598       -0.051141
6
  Step 40: 40.0 fs
C       -0.011065        0.673486       -0.035873
H        1.040918        1.338579        0.333539
H       -0.959137        1.250320        0.044397
C        0.009509       -0.668546        0.002842
H       -0.870821       -1.296172        0.059694
H        0.807343       -1.351275       -0.044359
6
  Step 41: 41.0 fs
C       -0.012315        0.673373       -0.035361
H        1.020220        1.336905        0.325893
H       -0.966931        1.268881        0.052303
C        0.015791       -0.670941        0.001651
H       -0.895612       -1.268227        0.058667
H        0.800716       -1.366242       -0.035492
6
  Step 42: 42.0 fs
C       -0.011678        0.674416       -0.032758
H        0.971807        1.317148        0.300765
H       -0.964820        1.280240        0.057174
C        0.020496       -0.672545        0.000263
H       -0.925827       -1.236305        0.053777
H        0.813617       -1.383072       -0.024820
6
  Step 43: 43.0 fs
C       -0.009466        0.676423       -0.028204
H        0.901740        1.282575        0.260214
H       -0.952707        1.282637        0.058570
C        0.023501       -0.673583       -0.001298
H       -0.956352       -1.200680        0.044931
H        0.839962       -1.398056       -0.012454
6
  Step 44: 44.0 fs
C       -0.006497        0.678575       -0.022120
H        0.824800        1.242149        0.209131
H       -0.933521        1.276277        0.056377
C        0.024958       -0.674362       -0.003006
H       -0.982231       -1.162525        0.032287
H        0.870890       -1.405773        0.001356
6
  Step 45: 45.0 fs
C       -0.004652        0.679065       -0.015283
H        0.770538        1.214877        0.156102
H       -0.912833        1.263283        0.050840
C        0.025114       -0.675024       -0.004818
H       -0.999923       -1.123981        0.016338
H        0.898339       -1.401990        0.016044
6
  Step 46: 46.0 fs
C       -0.006170        0.675655       -0.008446
H        0.773747        1.223990        0.108740
H       -0.897919        1.247386        0.042537
C        0.024243       -0.675497       -0.006672
H       -1.008029       -1.088021       -0.002064
H        0.916757       -1.384921        0.030780
6
  Step 47: 47.0 fs
C       -0.010325        0.668278       -0.001613
H        0.832754        1.268401        0.065312
H       -0.895537        1.232823        0.032180
C        0.022623       -0.675619       -0.008489
H       -1.007523       -1.058168       -0.021858
H        0.923614       -1.355331        0.044636
6
  Step 48: 48.0 fs
C       -0.013894        0.659177        0.005414
H        0.911462        1.323265        0.021864
H       -0.908442        1.222401        0.020292
C        0.020484       -0.675204       -0.010196
H       -1.001441       -1.038041       -0.042060
H        0.919687       -1.316465        0.056831
6
  Step 49: 49.0 fs
C       -0.014844        0.650553        0.012495
H        0.980734        1.368596       -0.021158
H       -0.933043        1.215803        0.007150
C        0.017929       -0.674026       -0.011741
H       -0.993877       -1.030719       -0.061944
H        0.909191       -1.273861        0.066955
6
  Step 50: 50.0 fs
C       -0.012840        0.643968        0.019337
H        1.026310        1.394813       -0.061305
H       -0.961276        1.210205       -0.006931
C        0.014820       -0.671850       -0.013106
H       -0.988280       -1.038044       -0.081035
H        0.899391       -1.234660        0.075058
6
  Step 51: 51.0 fs
C       -0.008359        0.640474        0.025627
H        1.042570        1.398322       -0.096015
H       -0.984566        1.202462       -0.021391
C        0.010834       -0.668588       -0.014305
H       -0.985867       -1.060092       -0.098921
H        0.898108       -1.205605        0.081495
6
  Step 52: 52.0 fs
C       -0.002047        0.640667        0.031074
H        1.028076        1.378416       -0.123074
H       -0.996799        1.190791       -0.035495
C        0.005766       -0.664495       -0.015352
H       -0.985085       -1.094991       -0.115059
H        0.909236       -1.190154        0.086406
6
  Step 53: 53.0 fs
C        0.005468        0.644653        0.035427
H        0.984540        1.336657       -0.140750
H       -0.995157        1.175152       -0.048489
C       -0.000185       -0.660203       -0.016226
H       -0.982470       -1.139215       -0.128710
H        0.929883       -1.187080        0.089308
6
  Step 54: 54.0 fs
C        0.013477        0.651900        0.038521
H        0.918442        1.278051       -0.148223
H       -0.980306        1.157204       -0.059781
C       -0.006467       -0.656492       -0.016876
H       -0.974299       -1.188231       -0.139024
H        0.952397       -1.191978        0.089281
6
  Step 55: 55.0 fs
C        0.020717        0.660927        0.040407
H        0.846589        1.214744       -0.147002
H       -0.956312        1.140133       -0.069078
C       -0.012437       -0.653977       -0.017243
H       -0.958064       -1.237346       -0.145241
H        0.968883       -1.199910        0.085488
6
  Step 56: 56.0 fs
C        0.024764        0.669058        0.041549
H        0.802936        1.169911       -0.143131
H       -0.930216        1.128309       -0.076478
C       -0.017537       -0.652960       -0.017285
H       -0.933203       -1.282476       -0.146877
H        0.974118       -1.207048        0.077556
6
  Step 57: 57.0 fs
C        0.023151        0.673531        0.042618
H        0.823974        1.166790       -0.144541
H       -0.910698        1.126664       -0.082474
C       -0.021349       -0.653479       -0.016984
H       -0.901337       -1.320762       -0.143853
H        0.966289       -1.211057        0.065636
6
  Step 58: 58.0 fs
C        0.017168        0.674276        0.043496
H        0.900617        1.198643       -0.149311
H       -0.905020        1.139294       -0.087701
C       -0.023618       -0.655413       -0.016355
H       -0.866130       -1.351001       -0.136557
H        0.946999       -1.211134        0.050400
6
  Step 59: 59.0 fs
C        0.010344        0.673113        0.043520
H        0.991750        1.240308       -0.149212
H       -0.914459        1.167211       -0.092259
C       -0.024287       -0.658449       -0.015443
H       -0.832767       -1.373652       -0.125750
H        0.921162       -1.208072        0.032895
6
  Step 60: 60.0 fs
C        0.004613        0.671557        0.042278
H        1.067925        1.274695       -0.139843
H       -0.932522        1.206881       -0.095234
C       -0.023546       -0.662032       -0.014304
H       -0.806909       -1.390322       -0.112314
H        0.896596       -1.204252        0.014288
6
  Step 61: 61.0 fs
C        0.000338        0.670560        0.039643
H        1.115394        1.294147       -0.120607
H       -0.949109        1.251704       -0.095173
C       -0.021815       -0.665500       -0.013003
H       -0.793204       -1.402724       -0.096995
H        0.882301       -1.202958       -0.004437
6
  Step 62: 62.0 fs
C       -0.002658        0.670690        0.035655
H        1.128906        1.295859       -0.092624
H       -0.955723        1.294831       -0.090888
C       -0.019554       -0.668367       -0.011599
H       -0.793654       -1.411413       -0.080225
H        0.884599       -1.206512       -0.022703
6
  Step 63: 63.0 fs
C       -0.004556        0.672216        0.030466
H        1.107405        1.279371       -0.057691
H       -0.947561        1.330830       -0.081829
C       -0.017004       -0.670553       -0.010151
H       -0.806938       -1.415216       -0.062188
H        0.903453       -1.214359       -0.040200
6
  Step 64: 64.0 fs
C       -0.005460        0.675090        0.024320
H        1.053280        1.246084       -0.018010
H       -0.923832        1.356413       -0.068088
C       -0.014131       -0.672326       -0.008728
H       -0.829073       -1.411835       -0.043055
H        0.932527       -1.223137       -0.056518
6
  Step 65: 65.0 fs
C       -0.005595        0.678830        0.017536
H        0.974448        1.200297        0.023899
H       -0.887530        1.370676       -0.050316
C       -0.010800       -0.674021       -0.007408
H       -0.854914       -1.399103       -0.023223
H        0.962852       -1.228691       -0.070963
6
  Step 66: 66.0 fs
C       -0.005803        0.682266        0.010456
H        0.890013        1.151962        0.065732
H       -0.845345        1.375427       -0.029578
C       -0.006964       -0.675787       -0.006261
H       -0.879675       -1.376072       -0.003401
H        0.986654       -1.228006       -0.082721
6
  Step 67: 67.0 fs
C       -0.008019        0.683354        0.003268
H        0.835362        1.119056        0.107415
H       -0.807146        1.375298       -0.007142
C       -0.002700       -0.677522       -0.005346
H       -0.899903       -1.343480        0.015458
H        0.998948       -1.219864       -0.091009
6
  Step 68: 68.0 fs
C       -0.013887        0.680183       -0.004121
H        0.843329        1.117669        0.152202
H       -0.783801        1.376641        0.015892
C        0.001797       -0.678939       -0.004713
H       -0.913994       -1.303752        0.032324
H        0.998029       -1.204915       -0.095259
6
  Step 69: 69.0 fs
C       -0.021671        0.673065       -0.011513
H        0.902557        1.141581        0.199373
H       -0.782321        1.384038        0.038920
C        0.006231       -0.679683       -0.004389
H       -0.922386       -1.260743        0.046332
H        0.985605       -1.185605       -0.095303
6
  Step 70: 70.0 fs
C       -0.028233        0.664008       -0.018196
H        0.976075        1.172487        0.241695
H       -0.801317        1.396207        0.061520
C        0.010203       -0.679383       -0.004373
H       -0.927253       -1.219102        0.056966
H        0.966782       -1.166044       -0.091482
6
  Step 71: 71.0 fs
C       -0.031996        0.655092       -0.023501
H        1.037845        1.198074        0.272665
H       -0.832312        1.406409        0.082783
C        0.013208       -0.677688       -0.004631
H       -0.931657       -1.183396        0.064085
H        0.949438       -1.151558       -0.084586
6
  Step 72: 72.0 fs
C       -0.032721        0.647958       -0.027003
H        1.075564        1.212887        0.288900
H       -0.865279        1.406992        0.101294
C        0.014752       -0.674419       -0.005121
H       -0.938212       -1.157175        0.067764
H        0.941471       -1.147152       -0.075478
6
  Step 73: 73.0 fs
C       -0.030621        0.643731       -0.028471
H        1.084345        1.215068        0.289122
H       -0.892571        1.392936        0.115681
C        0.014616       -0.669777       -0.005818
H       -0.947780       -1.142252        0.068114
H        0.946170       -1.155130       -0.064669
6
  Step 74: 74.0 fs
C       -0.025969        0.643042       -0.027817
H        1.063003        1.204566        0.273265
H       -0.909912        1.362652        0.124969
C        0.013014       -0.664408       -0.006717
H       -0.959034       -1.138572        0.065169
H        0.959790       -1.173734       -0.052238
6
  Step 75: 75.0 fs
C       -0.019039        0.645985       -0.025091
H        1.013478        1.182925        0.242313
H       -0.916407        1.317814        0.128750
C        0.010424       -0.659203       -0.007814
H       -0.969051       -1.144569        0.058915
H        0.974139       -1.198277       -0.038209
6
  Step 76: 76.0 fs
C       -0.010305        0.651974       -0.020536
H        0.943103        1.154527        0.198833
H       -0.914600        1.263036        0.127298
C        0.007318       -0.654980       -0.009085
H       -0.974532       -1.157765        0.049426
H        0.981167       -1.223487       -0.022883
6
  Step 77: 77.0 fs
C       -0.000950        0.659495       -0.014685
H        0.870366        1.129669        0.148029
H       -0.910427        1.205296        0.121549
C        0.004043       -0.652257       -0.010484
H       -0.973039       -1.175390        0.037007
H        0.975844       -1.245234       -0.006929
6
  Step 78: 78.0 fs
C        0.006625        0.666020       -0.008318
H        0.829711        1.127433        0.097339
H       -0.912157        1.152611        0.112885
C        0.000859       -0.651200       -0.011942
H       -0.963801       -1.194858        0.022258
H        0.956711       -1.261119        0.008732
6
  Step 79: 79.0 fs
C        0.010290        0.669259       -0.001924
H        0.850188        1.164759        0.050475
H       -0.926794        1.111557        0.102523
C       -0.002026       -0.651698       -0.013375
H       -0.948046       -1.214149        0.006046
H        0.925811       -1.270729        0.023092
6
  Step 80: 80.0 fs
C        0.011317        0.669488        0.004592
H        0.914473        1.232511        0.004754
H       -0.955721        1.085226        0.090926
C       -0.004498       -0.653478       -0.014696
H       -0.928899       -1.232107       -0.010679
H        0.888514       -1.275713        0.035288
6
  Step 81: 81.0 fs
C        0.012156        0.668589        0.011221
H        0.983969        1.307017       -0.040530
H       -0.992886        1.072892        0.077794
C       -0.006593       -0.656103       -0.015844
H       -0.910749       -1.248394       -0.027115
H        0.852981       -1.279644        0.044870
6
  Step 82: 82.0 fs
C        0.013781        0.668065        0.017722
H        1.034102        1.371151       -0.083040
H       -1.027985        1.071647        0.062718
C       -0.008476       -0.659015       -0.016786
H       -0.898006       -1.263004       -0.042697
H        0.828267       -1.287001        0.051856
6
  Step 83: 83.0 fs
C        0.016105        0.668703        0.023792
H        1.054561        1.416127       -0.120005
H       -1.051520        1.078266        0.045713
C       -0.010251       -0.661772       -0.017505
H       -0.893695       -1.275662       -0.057039
H        0.820492       -1.300696        0.056448
6
  Step 84: 84.0 fs
C        0.018781        0.670805        0.029142
H        1.042448        1.437927       -0.149145
H       -1.057454        1.090141        0.027256
C       -0.011787       -0.664292       -0.017968
H       -0.898349       -1.285331       -0.069803
H        0.829607       -1.319718        0.058627
6
  Step 85: 85.0 fs
C        0.021532        0.674355        0.033511
H        0.998703        1.435179       -0.168745
H       -1.043662        1.105412        0.008136
C       -0.012744       -0.666823       -0.018131
H       -0.910018       -1.290277       -0.080572
H        0.849876       -1.339418        0.058038
6
  Step 86: 86.0 fs
C        0.024160        0.679020        0.036691
H        0.927825        1.409038       -0.177786
H       -1.011961        1.123022       -0.010731
C       -0.012781       -0.669670       -0.017957
H       -0.925233       -1.288659       -0.088835
H        0.873397       -1.354148        0.054275
6
  Step 87: 87.0 fs
C        0.026345        0.683982        0.038598
H        0.840414        1.365196       -0.176658
H       -0.968263        1.142838       -0.028472
C       -0.011705       -0.672939       -0.017433
H       -0.940329       -1.279269       -0.094076
H        0.893383       -1.359660        0.047170
6
  Step 88: 88.0 fs
C        0.027151        0.687546        0.039445
H        0.758685        1.318589       -0.168932
H       -0.922381        1.165779       -0.044455
C       -0.009501       -0.676442       -0.016569
H       -0.952452       -1.262018       -0.095905
H        0.905503       -1.353971        0.036887
6
  Step 89: 89.0 fs
C        0.024714        0.687011        0.039859
H        0.718393        1.295972       -0.162687
H       -0.886209        1.193631       -0.058399
C       -0.006307       -0.679744       -0.015392
H       -0.960112       -1.238091       -0.094150
H        0.908268       -1.337437        0.023881
6
  Step 90: 90.0 fs
C        0.017950        0.680642        0.040316
H        0.743479        1.315296       -0.163712
H       -0.868765        1.227551       -0.070211
C       -0.002418       -0.682298       -0.013945
H       -0.963368       -1.209879       -0.088919
H        0.903218       -1.312647        0.008822
6
  Step 91: 91.0 fs
C        0.008794        0.670261        0.040322
H        0.814296        1.358488       -0.166289
H       -0.870993        1.265849       -0.079490
C        0.001705       -0.683601       -0.012282
H       -0.963678       -1.180721       -0.080594
H        0.894859       -1.284166       -0.007512
6
  Step 92: 92.0 fs
C       -0.000304        0.659054        0.039174
H        0.896894        1.397676       -0.162491
H       -0.885720        1.303162       -0.085271
C        0.005493       -0.683244       -0.010458
H       -0.963363       -1.154335       -0.069735
H        0.889899       -1.257859       -0.024452
6
  Step 93: 93.0 fs
C       -0.008153        0.649418        0.036566
H        0.969290        1.417335       -0.149126