6
  Step 0: 0.0 fs
C        0.000001        0.665095       -0.000000
H        0.925303        1.240831        0.000002
H       -0.925314        1.240814        0.000001
C       -0.000000       -0.665096        0.000000
H       -0.925306       -1.240809       -0.000000
H        0.925304       -1.240821       -0.000001
6
  Step 1: 1.0 fs
C       -0.003619        0.670151       -0.007030
H        0.955666        1.203258        0.047803
H       -0.958443        1.217828        0.011980
C        0.013280       -0.661240        0.001629
H       -1.028077       -1.271969        0.020175
H        0.915825       -1.255218       -0.015649
6
  Step 2: 2.0 fs
C       -0.007115        0.674998       -0.013781
H        0.981558        1.167855        0.093687
H       -0.986309        1.195048        0.023567
C        0.024115       -0.658351        0.003213
H       -1.106145       -1.290163        0.039231
H        0.908467       -1.270948       -0.030659
6
  Step 3: 3.0 fs
C       -0.010293        0.679370       -0.019974
H        0.998932        1.136564        0.135734
H       -1.005080        1.173157        0.034405
C        0.031440       -0.656656        0.004716
H       -1.149881       -1.291658        0.056021
H        0.904216       -1.288510       -0.044480
6
  Step 4: 4.0 fs
C       -0.012912        0.682942       -0.025355
H        1.005080        1.111312        0.172195
H       -1.013046        1.153446        0.044232
C        0.034887       -0.656197        0.006083
H       -1.156133       -1.276214        0.069624
H        0.902428       -1.306983       -0.056586
6
  Step 5: 5.0 fs
C       -0.014708        0.685348       -0.029716
H        0.999223        1.094090        0.201660
H       -1.010827        1.137722        0.052950
C        0.034443       -0.657015        0.007252
H       -1.124656       -1.244973        0.079288
H        0.901238       -1.324188       -0.066430
6
  Step 6: 6.0 fs
C       -0.015430        0.686223       -0.032921
H        0.982686        1.086879        0.223231
H       -1.001167        1.128087        0.060638
C        0.030366       -0.659110        0.008158
H       -1.057945       -1.200334        0.084444
H        0.898550       -1.337453       -0.073470
6
  Step 7: 7.0 fs
C       -0.014916        0.685244       -0.034913
H        0.958837        1.091492        0.236632
H       -0.988155        1.126524        0.067494
C        0.023360       -0.662237        0.008725
H       -0.964295       -1.147451        0.084957
H        0.893016       -1.344500       -0.077264
6
  Step 8: 8.0 fs
C       -0.013187        0.682192       -0.035700
H        0.932632        1.109352        0.242167
H       -0.975792        1.134246        0.073672
C        0.015271       -0.665503        0.008815
H       -0.866245       -1.098213        0.081847
H        0.884542       -1.344091       -0.077579
6
  Step 9: 9.0 fs
C       -0.010503        0.677050       -0.035311
H        0.909245        1.140965        0.240420
H       -0.966394        1.150989        0.079051
C        0.009972       -0.666926        0.008147
H       -0.811002       -1.076100        0.078421
H        0.874419       -1.336385       -0.074454
6
  Step 10: 10.0 fs
C       -0.007267        0.670168       -0.033748
H        0.892005        1.185143        0.231700
H       -0.959703        1.174646        0.083114
C        0.010924       -0.664665        0.006479
H       -0.841318       -1.102168        0.078101
H        0.865406       -1.323134       -0.068231
6
  Step 11: 11.0 fs
C       -0.003837        0.662419       -0.030961
H        0.880953        1.238292        0.215723
H       -0.953471        1.201590        0.085074
C        0.015556       -0.659957        0.004093
H       -0.928676       -1.161566        0.078612
H        0.861578       -1.307622       -0.059500
6
  Step 12: 12.0 fs
C       -0.000425        0.655059       -0.026895
H        0.873377        1.294494        0.191873
H       -0.945082        1.227632        0.084166
C        0.019498       -0.655219        0.001412
H       -1.021914       -1.226707        0.076270
H        0.866437       -1.293506       -0.048891
6
  Step 13: 13.0 fs
C        0.002876        0.649396       -0.021563
H        0.865802        1.346769        0.159919
H       -0.932949        1.249064        0.079931
C        0.020628       -0.652020       -0.001337
H       -1.093481       -1.281589        0.069733
H        0.880687       -1.282982       -0.036921
6
  Step 14: 14.0 fs
C        0.006033        0.646472       -0.015093
H        0.855877        1.388828        0.120539
H       -0.917170        1.263375        0.072371
C        0.018526       -0.651273       -0.004055
H       -1.132721       -1.319226        0.059097
H        0.901505       -1.275801       -0.024021
6
  Step 15: 15.0 fs
C        0.009053        0.646819       -0.007725
H        0.843060        1.416256        0.075274
H       -0.899671        1.269649        0.061937
C        0.013526       -0.653483       -0.006681
H       -1.136124       -1.336673        0.044990
H        0.923792       -1.269873       -0.010676
6
  Step 16: 16.0 fs
C        0.011965        0.650336        0.000226
H        0.828709        1.427041        0.026260
H       -0.883990        1.268651        0.049423
C        0.006200       -0.658741       -0.009162
H       -1.103326       -1.332856        0.028230
H        0.942210       -1.262745        0.002479
6
  Step 17: 17.0 fs
C        0.014773        0.656304        0.008406
H        0.815861        1.421804       -0.024143
H       -0.874608        1.262540        0.035786
C       -0.002808       -0.666648       -0.011440
H       -1.036727       -1.308376        0.009789
H        0.952890       -1.252790        0.014691
6
  Step 18: 18.0 fs
C        0.017364        0.663568        0.016475
H        0.808701        1.403563       -0.073783
H       -0.875473        1.254013        0.021934
C       -0.012585       -0.676216       -0.013466
H       -0.944410       -1.267341       -0.009179
H        0.954158       -1.239630        0.025188
6
  Step 19: 19.0 fs
C        0.019403        0.670838        0.024147
H        0.811706        1.376988       -0.121021
H       -0.888068        1.245092        0.008592
C       -0.021289       -0.685571       -0.015194
H       -0.848034       -1.222492       -0.027477
H        0.946727       -1.224146        0.033307
6
  Step 20: 20.0 fs
C        0.020374        0.677029        0.031193
H        0.827883        1.346630       -0.164747
H       -0.910189        1.236387       -0.003681
C       -0.025349       -0.691555       -0.016529
H       -0.792210       -1.201722       -0.044765
H        0.933618       -1.208322        0.038586
6
  Step 21: 21.0 fs
C        0.019829        0.681563        0.037403
H        0.856681        1.314931       -0.203839
H       -0.936514        1.227357       -0.014397
C       -0.021805       -0.691314       -0.017270
H       -0.816808       -1.231056       -0.062348
H        0.920031       -1.195104        0.040859
6
  Step 22: 22.0 fs
C        0.017647        0.684432        0.042531
H        0.893399        1.281903       -0.236526
H       -0.960719        1.217233       -0.023112
C       -0.013463       -0.685930       -0.017417
H       -0.895296       -1.293144       -0.079614
H        0.912636       -1.188132        0.040231
6
  Step 23: 23.0 fs
C        0.014056        0.685914        0.046316
H        0.930982        1.246532       -0.260582
H       -0.977579        1.205812       -0.029469
C       -0.004810       -0.678027       -0.017180
H       -0.979891       -1.355976       -0.093735
H        0.916243       -1.190255        0.036854
6
  Step 24: 24.0 fs
C        0.009481        0.686280        0.048547
H        0.962651        1.208418       -0.273990
H       -0.984155        1.193765       -0.033250
C        0.001911       -0.669358       -0.016691
H       -1.044609       -1.402167       -0.102787
H        0.930303       -1.201495        0.030713
6
  Step 25: 25.0 fs
C        0.004443        0.685691        0.049111
H        0.983584        1.168466       -0.275542
H       -0.980259        1.182699       -0.034444
C        0.006215       -0.661121       -0.015996
H       -1.079432       -1.425118       -0.105995
H        0.949032       -1.218568        0.021676
6
  Step 26: 26.0 fs
C       -0.000511        0.684165        0.048017
H        0.991634        1.128913       -0.265085
H       -0.968404        1.175051       -0.033262
C        0.008315       -0.654319       -0.015112
H       -1.081189       -1.422816       -0.103193
H        0.964858       -1.236490        0.009743
6
  Step 27: 27.0 fs
C       -0.004879        0.681599        0.045392
H        0.987680        1.093067       -0.243536
H       -0.953236        1.173798       -0.030082
C        0.008518       -0.649762       -0.014073
H       -1.049787       -1.395307       -0.094520
H        0.971827       -1.250622       -0.004779
6
  Step 28: 28.0 fs
C       -0.008345        0.677826        0.041455
H        0.975646        1.064986       -0.212752
H       -0.939904        1.181662       -0.025279
C        0.007067       -0.647962       -0.012923
H       -0.987732       -1.344455       -0.080376
H        0.967013       -1.257759       -0.021316
6
  Step 29: 29.0 fs
C       -0.010949        0.672722        0.036476
H        0.962059        1.049000       -0.175217
H       -0.931747        1.199872       -0.019025
C        0.004354       -0.648903       -0.011704
H       -0.902838       -1.275892       -0.061580
H        0.950838       -1.256576       -0.039139
6
  Step 30: 30.0 fs
C       -0.013086        0.666361        0.030716
H        0.954069        1.048717       -0.133368
H       -0.928530        1.227141       -0.011216
C        0.001580       -0.651567       -0.010412
H       -0.815723       -1.204109       -0.039681
H        0.926978       -1.247867       -0.057494
6
  Step 31: 31.0 fs
C       -0.015189        0.659150        0.024370
H        0.955632        1.065435       -0.088872
H       -0.926918        1.259697       -0.001600
C        0.001618       -0.653448       -0.009009
H       -0.769290       -1.158412       -0.016649
H        0.901944       -1.234591       -0.075785
6
  Step 32: 32.0 fs
C       -0.017328        0.651945        0.017586
H        0.964687        1.096983       -0.042651
H       -0.922645        1.292430        0.009971
C        0.007023       -0.652174       -0.007581
H       -0.803642       -1.165048        0.007282
H        0.884070       -1.221609       -0.093745
6
  Step 33: 33.0 fs
C       -0.019156        0.645999        0.010552
H        0.974478        1.138134        0.004227
H       -0.912614        1.320370        0.023369
C        0.015022       -0.649053       -0.006254
H       -0.893968       -1.207777        0.032659
H        0.881094       -1.214346       -0.111437
6
  Step 34: 34.0 fs
C       -0.020198        0.642570        0.003539
H        0.977778        1.182337        0.049936
H       -0.895924        1.339863        0.038174
C        0.021358       -0.646739       -0.004977
H       -0.991494       -1.256684        0.057747
H        0.895593       -1.215852       -0.128745
6
  Step 35: 35.0 fs
C       -0.020062        0.642483       -0.003131
H        0.969924        1.223544        0.092158
H       -0.874095        1.349214        0.053767
C        0.024262       -0.646894       -0.003714
H       -1.068543       -1.295638        0.080303
H        0.922463       -1.224567       -0.144746
6
  Step 36: 36.0 fs
C       -0.018457        0.645918       -0.009147
H        0.949657        1.257226        0.128555
H       -0.850982        1.348944        0.069522
C        0.023741       -0.650279       -0.002527
H       -1.113892       -1.318439        0.098715
H        0.952054       -1.235780       -0.157806
6
  Step 37: 37.0 fs
C       -0.015187        0.652363       -0.014260
H        0.918976        1.280940        0.157216
H       -0.832325        1.341576        0.084997
C        0.020346       -0.656955       -0.001516
H       -1.123497       -1.323049        0.111913
H        0.975156       -1.244761       -0.166293
6
  Step 38: 38.0 fs
C       -0.010216        0.660749       -0.018313
H        0.882752        1.294576        0.176977
H       -0.824583        1.330733        0.100015
C        0.014631       -0.666415       -0.000758
H       -1.096644       -1.309320        0.119176
H        0.985641       -1.248498       -0.169111
6
  Step 39: 39.0 fs
C       -0.003874        0.669741       -0.021241
H        0.848443        1.300604        0.187677
H       -0.832417        1.319164        0.114484
C        0.007088       -0.677716       -0.000295
H       -1.035549       -1.278736        0.120125
H        0.980985       -1.246048       -0.165871
6
  Step 40: 40.0 fs
C        0.002995        0.678042       -0.023057
H        0.824996        1.303827        0.190240
H       -0.856102        1.307029        0.127998
C       -0.001575       -0.689493       -0.000162
H       -0.948360       -1.236052        0.115134
H        0.962279       -1.238441       -0.156923
6
  Step 41: 41.0 fs
C        0.009205        0.684621       -0.023788
H        0.820068        1.309591        0.186161
H       -0.890899        1.292098        0.139632
C       -0.009762       -0.699702       -0.000473
H       -0.857005       -1.193599        0.106382
H        0.934180       -1.228491       -0.143320
6
  Step 42: 42.0 fs
C        0.013742        0.688900       -0.023402
H        0.835876        1.320442        0.176324
H       -0.929037        1.271635        0.148212
C       -0.014258       -0.705315       -0.001540
H       -0.805601       -1.176135        0.099100
H        0.904609       -1.220463       -0.126672
6
  Step 43: 43.0 fs
C        0.016210        0.690848       -0.021799
H        0.867284        1.334188        0.160384
H       -0.962746        1.244200        0.152747
C       -0.012551       -0.703772       -0.003597
H       -0.832023       -1.204993        0.098076
H        0.883622       -1.219482       -0.108843
6
  Step 44: 44.0 fs
C        0.016807        0.690861       -0.018896
H        0.904445        1.345562        0.137566
H       -0.986142        1.210179        0.152691
C       -0.007353       -0.696055       -0.006243
H       -0.910608       -1.264122        0.100303
H        0.879430       -1.229743       -0.091254
6
  Step 45: 45.0 fs
C        0.016023        0.689432       -0.014727
H        0.937495        1.349517        0.107758
H       -0.996333        1.171729        0.148029
C       -0.002477       -0.684844       -0.008968
H       -0.995136       -1.324476        0.100654
H        0.892370       -1.251355       -0.074321
6
  Step 46: 46.0 fs
C        0.014436        0.686954       -0.009461
H        0.959161        1.342935        0.071826
H       -0.993831        1.132489        0.139284
C        0.000703       -0.672416       -0.011550
H       -1.059980       -1.369332        0.096843
H        0.914070       -1.279159       -0.057793
6
  Step 47: 47.0 fs
C        0.012656        0.683680       -0.003377
H        0.965572        1.325080        0.031401
H       -0.982646        1.097209        0.127476
C        0.002325       -0.660573       -0.013907
H       -1.095128       -1.391734        0.088511
H        0.933498       -1.305654       -0.041603
6
  Step 48: 48.0 fs
C        0.011283        0.679714        0.003181
H        0.956390        1.297545       -0.011483
H       -0.969765        1.071181        0.113921
C        0.002830       -0.650744       -0.015977
H       -1.097444       -1.389193        0.076057
H        0.942450       -1.324443       -0.026151
6
  Step 49: 49.0 fs
C        0.010701        0.675048        0.009874
H        0.935019        1.264212       -0.054808
H       -0.962819        1.059049        0.099802
C        0.002524       -0.644000       -0.017686
H       -1.066931       -1.361386        0.060185
H        0.936921       -1.331522       -0.012175
6
  Step 50: 50.0 fs
C        0.010747        0.669642        0.016444
H        0.908651        1.231074       -0.097038
H       -0.965997        1.063134        0.085721
C        0.001532       -0.640970       -0.018968
H       -1.006290       -1.309948        0.041845
H        0.917083       -1.325615       -0.000493
6
  Step 51: 51.0 fs
C        0.010590        0.663529        0.022750
H        0.887085        1.205306       -0.137564
H       -0.977390        1.082397        0.071699
C        0.000034       -0.641609       -0.019781
H       -0.923674       -1.240335        0.022357
H        0.887126       -1.308321        0.008144
6
  Step 52: 52.0 fs
C        0.009210        0.656971        0.028713
H        0.878344        1.192456       -0.176372
H       -0.990449        1.112877        0.057613
C       -0.001109       -0.644741       -0.020152
H       -0.840060       -1.166515        0.003601
H        0.855346       -1.284401        0.013212
6
  Step 53: 53.0 fs
C        0.006125        0.650610        0.034179
H        0.883601        1.193301       -0.212686
H       -0.997891        1.149259        0.043566
C        0.000466       -0.647690       -0.020160
H       -0.797986       -1.115669       -0.012386
H        0.833425       -1.261619        0.014578
6
  Step 54: 54.0 fs
C        0.001635        0.645453        0.038848
H        0.896916        1.203735       -0.244019
H       -0.994633        1.186366        0.029981
C        0.006849       -0.648020       -0.019813
H       -0.836273       -1.111196       -0.025061
H        0.832600       -1.248305        0.012439
6
  Step 55: 55.0 fs
C       -0.003542        0.642641        0.042360
H        0.910017        1.217809       -0.267023
H       -0.978647        1.220063        0.017519
C        0.015417       -0.646778       -0.019053
H       -0.930380       -1.139749       -0.035003
H        0.857234       -1.248823        0.006981
6
  Step 56: 56.0 fs
C       -0.008661        0.642979        0.044419
H        0.916653        1.230457       -0.278985
H       -0.951065        1.247878        0.006939
C        0.022509       -0.646472       -0.017903
H       -1.031235       -1.176631       -0.041887
H        0.900371       -1.260080       -0.001804
6
  Step 57: 57.0 fs
C       -0.013062        0.646629        0.044857
H        0.913913        1.238456       -0.278516
H       -0.916108        1.269405       -0.001091
C        0.026813       -0.648730       -0.016417
H       -1.110216       -1.208511       -0.045245
H        0.948290       -1.274287       -0.013792
6
  Step 58: 58.0 fs
C       -0.016151        0.653034        0.043643
H        0.902155        1.240569       -0.265659
H       -0.880728        1.286431       -0.006147
C        0.028367       -0.654090       -0.014657
H       -1.155432       -1.230236       -0.044915
H        0.988152       -1.284139       -0.028434
6
  Step 59: 59.0 fs
C       -0.017461        0.661057        0.040887
H        0.884816        1.237551       -0.241789
H       -0.853388        1.302411       -0.008099
C        0.027462       -0.662284       -0.012692
H       -1.162544       -1.240057       -0.040982
H        1.011620       -1.285251       -0.044865
6
  Step 60: 60.0 fs
C       -0.016891        0.669302        0.036812
H        0.868136        1.232115       -0.209384
H       -0.840987        1.320469       -0.006981
C        0.024301       -0.672545       -0.010596
H       -1.130762       -1.237755       -0.033689
H        1.014967       -1.276160       -0.062108
6
  Step 61: 61.0 fs
C       -0.014933        0.676501        0.031711
H        0.860245        1.228493       -0.171534
H       -0.845516        1.340882       -0.002813
C        0.019014       -0.683808       -0.008446
H       -1.062414       -1.224426       -0.023433
H        0.998666       -1.257907       -0.079244
6
  Step 62: 62.0 fs
C       -0.012502        0.681839        0.025863
H        0.867887        1.230550       -0.130853
H       -0.863079        1.360311        0.004366
C        0.011917       -0.694701       -0.006307
H       -0.965802       -1.203821       -0.010783
H        0.967533       -1.233844       -0.095606
6
  Step 63: 63.0 fs
C       -0.010375        0.685068        0.019475
H        0.892028        1.239063       -0.088675
H       -0.886323        1.373690        0.014313
C        0.004130       -0.703305       -0.004211
H       -0.862711       -1.186203        0.003610
H        0.930927       -1.209362       -0.111013
6
  Step 64: 64.0 fs
C       -0.008793        0.686400        0.012719
H        0.926356        1.250718       -0.045535
H       -0.907817        1.376767        0.026530
C       -0.001698       -0.706802       -0.002193
H       -0.795973       -1.193455        0.019636
H        0.901894       -1.191057       -0.125979
6
  Step 65: 65.0 fs
C       -0.007567        0.686254        0.005809
H        0.960884        1.260231       -0.002299
H       -0.922137        1.367363        0.040369
C       -0.003279       -0.702767       -0.000359
H       -0.802377       -1.246706        0.038387
H        0.892317       -1.184226       -0.141358
6
  Step 66: 66.0 fs
C       -0.006378        0.685095       -0.000972
H        0.986720        1.263180        0.039359
H       -0.926551        1.345553        0.055147
C       -0.002608       -0.692417        0.001245
H       -0.859339       -1.331652        0.059504
H        0.905696       -1.189853       -0.157283
6
  Step 67: 67.0 fs
C       -0.004902        0.683315       -0.007317
H        0.998195        1.257138        0.077342
H       -0.921354        1.313635        0.070274
C       -0.002427       -0.679124        0.002632
H       -0.924043       -1.417163        0.080354
H        0.934004       -1.203457       -0.172211
6
  Step 68: 68.0 fs
C       -0.002857        0.681145       -0.012952
H        0.993405        1.241844        0.109685
H       -0.909927        1.275958        0.085374
C       -0.003446       -0.665711        0.003710
H       -0.972838       -1.483534        0.098573
H        0.963942       -1.217993       -0.183606
6
  Step 69: 69.0 fs
C       -0.000021        0.678632       -0.017684
H        0.974117        1.219095        0.134905
H       -0.898349        1.238425        0.100434
C       -0.005351       -0.654109        0.004349
H       -0.996807       -1.521941        0.112711
H        0.984521       -1.227517       -0.189294
6
  Step 70: 70.0 fs
C        0.003611        0.675660       -0.021423
H        0.945914        1.192800        0.152351
H       -0.893603        1.207079        0.115783
C       -0.007713       -0.645632        0.004455
H       -0.993450       -1.528878        0.121929
H        0.989491       -1.228488       -0.188045
6
  Step 71: 71.0 fs
C        0.007534        0.672066       -0.024171
H        0.918164        1.168887        0.162474
H       -0.900061        1.185874        0.131620
C       -0.010278       -0.641109        0.003994
H       -0.963137       -1.503473        0.125742
H        0.977207       -1.219838       -0.179613
6
  Step 72: 72.0 fs
C        0.010669        0.667779       -0.025962
H        0.902068        1.154206        0.166681
H       -0.916694        1.175236        0.147458
C       -0.012972       -0.640854        0.002993
H       -0.908666       -1.447170        0.123978
H        0.950207       -1.202801       -0.164651
6
  Step 73: 73.0 fs
C        0.011888        0.662955       -0.026771
H        0.905127        1.153482        0.166203
H       -0.937794        1.172759        0.162026
C       -0.015727       -0.644395        0.001520
H       -0.837749       -1.366005        0.117164
H        0.915616       -1.181167       -0.144751
6
  Step 74: 74.0 fs
C        0.010766        0.658074       -0.026442
H        0.925561        1.166170        0.160747
H       -0.956330        1.175100        0.173751
C       -0.017908       -0.649963       -0.000417
H       -0.769857       -1.276501        0.107561
H        0.885142       -1.161291       -0.122275
6
  Step 75: 75.0 fs
C        0.007720        0.653822       -0.024766
H        0.953559        1.186960        0.148807
H       -0.966854        1.179446        0.181300
C       -0.017366       -0.654142       -0.003029
H       -0.744655       -1.211762        0.100492
H        0.872279       -1.150784       -0.099678
6
  Step 76: 76.0 fs
C        0.003578        0.650918       -0.021622
H        0.977672        1.209287        0.129153
H       -0.966597        1.184009        0.183843
C       -0.011837       -0.654194       -0.006565
H       -0.798096       -1.199368        0.100963
H        0.884833       -1.154864       -0.078365
6
  Step 77: 77.0 fs
C       -0.000814        0.650007       -0.017063
H        0.989614        1.228110        0.101777
H       -0.955687        1.188174        0.181176
C       -0.003270       -0.651893       -0.010662
H       -0.904636       -1.220762        0.105534
H        0.918805       -1.173003       -0.058385
6
  Step 78: 78.0 fs
C       -0.004725        0.651414       -0.011297
H        0.985292        1.240521        0.067773
H       -0.937099        1.192625        0.173755
C        0.005257       -0.650348       -0.014781
H       -1.016081       -1.246319        0.108345
H        0.961014       -1.199457       -0.039403
6
  Step 79: 79.0 fs
C       -0.007572        0.654945       -0.004637
H        0.964694        1.245755        0.028925
H       -0.916306        1.199255        0.162630
C        0.012471       -0.651246       -0.018600
H       -1.104596       -1.261912        0.106686
H        0.997317       -1.227085       -0.021585
6
  Step 80: 80.0 fs
C       -0.008987        0.659906        0.002543
H        0.931728        1.245200       -0.012718
H       -0.900130        1.210563        0.149162
C        0.018097       -0.655041       -0.021934
H       -1.158543       -1.263268        0.100010
H        1.017912       -1.250361       -0.005591
6
  Step 81: 81.0 fs
C       -0.009024        0.665293        0.009897
H        0.894088        1.242496       -0.055310
H       -0.894017        1.228106        0.134484
C        0.022031       -0.661468       -0.024643
H       -1.173586       -1.249955        0.088650
H        1.018077       -1.266129        0.007737
6
  Step 82: 82.0 fs
C       -0.008306        0.670077        0.017176
H        0.862185        1.243099       -0.097733
H       -0.899255        1.250883        0.119118
C        0.024067       -0.669843       -0.026610
H       -1.148739       -1.223129        0.073290
H        0.997573       -1.273580        0.017626
6
  Step 83: 83.0 fs
C       -0.007732        0.673530        0.024233
H        0.845137        1.251943       -0.139646
H       -0.912558        1.275141        0.103141
C        0.023883       -0.679201       -0.027755
H       -1.085886       -1.185231        0.054903
H        0.960419       -1.274265        0.023518
6
  Step 84: 84.0 fs
C       -0.007848        0.675460        0.030899
H        0.845362        1.269936       -0.180430
H       -0.928271        1.295865        0.086655
C        0.021258       -0.688247       -0.028072
H       -0.992602       -1.141102        0.034887
H        0.915254       -1.272387        0.025209
6
  Step 85: 85.0 fs
C       -0.008534        0.676188        0.036876
H        0.857393        1.292848       -0.217952
H       -0.941116        1.308657        0.070036
C        0.016813       -0.695151       -0.027673
H       -0.890189       -1.101188        0.015396
H        0.874742       -1.274467        0.022919
6
  Step 86: 86.0 fs
C       -0.009283        0.676228        0.041776
H        0.872415        1.314056       -0.248887
H       -0.947613        1.310753        0.053899
C        0.013270       -0.697395       -0.026771
H       -0.824257       -1.085867       -0.000754
H        0.851379       -1.286841        0.017057
6
  Step 87: 87.0 fs
C       -0.009589        0.675994        0.045247
H        0.883079        1.327922       -0.270064
H       -0.946559        1.301362        0.038952
C        0.014094       -0.692966       -0.025479
H       -0.841270       -1.115843       -0.012114
H        0.850499       -1.311291        0.007823
6
  Step 88: 88.0 fs
C       -0.009062        0.675760        0.047063
H        0.885220        1.331176       -0.279400
H       -0.939111        1.281693        0.025881
C        0.017930       -0.683279       -0.023705
H       -0.919555       -1.180303       -0.019809
H        0.867243       -1.342967       -0.004818
6
  Step 89: 89.0 fs
C       -0.007437        0.675626        0.047144
H        0.877945        1.323093       -0.276227
H       -0.928723        1.254805        0.015262
C        0.021457       -0.671690       -0.021424
H       -1.007503       -1.251694       -0.024582
H        0.890723       -1.372999       -0.020713
6
  Step 90: 90.0 fs
C       -0.004593        0.675479        0.045559
H        0.863480        1.305436       -0.261343
H       -0.920685        1.225149        0.007489
C        0.023258       -0.660812       -0.018723
H       -1.075959       -1.312280       -0.026480
H        0.910297       -1.392872       -0.039224
6
  Step 91: 91.0 fs
C       -0.000668        0.675014        0.042527
H        0.847239        1.282532       -0.236975
H       -0.920535        1.197430        0.002738
C        0.023134       -0.652249       -0.015733
H       -1.113864       -1.353855       -0.025509
H        0.919036       -1.397093       -0.059318
6
  Step 92: 92.0 fs
C        0.003741        0.673836        0.038377
H        0.837473        1.261048       -0.206463
H       -0.931202        1.174910        0.001057
C        0.021189       -0.646915       -0.012593
H       -1.117897       -1.372800       -0.021794
H        0.914142       -1.383641       -0.079841
6
  Step 93: 93.0 fs
C        0.007628        0.671653        0.033454
H        0.842788        1.248094       -0.173155