6
  Step 0: 0.0 fs
C        0.000001        0.665095       -0.000002
H        0.925311        1.240828        0.000004
H       -0.925310        1.240810        0.000009
C       -0.000001       -0.665095        0.000002
H       -0.925304       -1.240826       -0.000009
H        0.925304       -1.240817       -0.000003
6
  Step 1: 1.0 fs
C        0.002285        0.652426        0.004651
H        0.982582        1.241580       -0.039472
H       -0.980272        1.256132       -0.005161
C        0.003239       -0.652141        0.000763
H       -0.947088       -1.300952       -0.027067
H        0.878997       -1.200154        0.007244
6
  Step 2: 2.0 fs
C        0.004246        0.642331        0.009084
H        1.025531        1.235531       -0.076944
H       -1.019018        1.263408       -0.010113
C        0.003932       -0.640473        0.001462
H       -0.956259       -1.349613       -0.052760
H        0.852359       -1.171458        0.014257
6
  Step 3: 3.0 fs
C        0.005713        0.636659        0.013057
H        1.046330        1.219706       -0.110138
H       -1.033378        1.259158       -0.014573
C        0.000573       -0.631228        0.002000
H       -0.947494       -1.379977       -0.075575
H        0.859670       -1.163570        0.021001
6
  Step 4: 4.0 fs
C        0.006608        0.636460        0.016364
H        1.042280        1.194062       -0.137073
H       -1.020875        1.243163       -0.018316
C       -0.006428       -0.625926        0.002309
H       -0.920302       -1.389001       -0.094222
H        0.896717       -1.173683        0.027274
6
  Step 5: 5.0 fs
C        0.006937        0.641782        0.018862
H        1.015066        1.160997       -0.156377
H       -0.983796        1.217954       -0.021238
C       -0.015270       -0.625929        0.002377
H       -0.877895       -1.377082       -0.107788
H        0.945801       -1.190680        0.032517
6
  Step 6: 6.0 fs
C        0.006797        0.651441        0.020507
H        0.971536        1.125486       -0.167697
H       -0.930256        1.189370       -0.023450
C       -0.023886       -0.631392        0.002260
H       -0.827917       -1.349143       -0.116039
H        0.990069       -1.204486        0.036108
6
  Step 7: 7.0 fs
C        0.006401        0.662987        0.021429
H        0.925542        1.095506       -0.172356
H       -0.876631        1.167675       -0.025492
C       -0.030205       -0.640891        0.002107
H       -0.784491       -1.316881       -0.119986
H        1.018962       -1.209458        0.037605
6
  Step 8: 8.0 fs
C        0.006021        0.673225        0.021957
H        0.897213        1.081083       -0.173572
H       -0.846227        1.166466       -0.028371
C       -0.032137       -0.651880        0.002170
H       -0.767511       -1.298100       -0.122144
H        1.027422       -1.203664        0.036811
6
  Step 9: 9.0 fs
C        0.005620        0.679705        0.022398
H        0.902749        1.089425       -0.174428
H       -0.854605        1.194318       -0.032858
C       -0.028485       -0.662144        0.002643
H       -0.790489       -1.305126       -0.124621
H        1.014529       -1.187776        0.033755
6
  Step 10: 10.0 fs
C        0.004733        0.682257        0.022661
H        0.939335        1.118682       -0.174408
H       -0.892937        1.245208       -0.038426
C       -0.020285       -0.671149        0.003408
H       -0.845051       -1.331323       -0.126267
H        0.983749       -1.164901        0.028703
6
  Step 11: 11.0 fs
C        0.003090        0.682372        0.022342
H        0.988058        1.159385       -0.170038
H       -0.938445        1.303860       -0.043599
C       -0.010240       -0.679206        0.004165
H       -0.909206       -1.359837       -0.124123
H        0.944649       -1.141200        0.022145
6
  Step 12: 12.0 fs
C        0.000806        0.681600        0.021109
H        1.029806        1.201316       -0.158425
H       -0.972704        1.356592       -0.047081
C       -0.001384       -0.686133        0.004684
H       -0.964137       -1.377939       -0.116273
H        0.913831       -1.126097        0.014673
6
  Step 13: 13.0 fs
C       -0.001862        0.680918        0.018847
H        1.052586        1.237047       -0.138616
H       -0.985957        1.394710       -0.048148
C        0.003779       -0.691253        0.004866
H       -0.998749       -1.379582       -0.102295
H        0.909201       -1.129227        0.006714
6
  Step 14: 14.0 fs
C       -0.004659        0.680805        0.015606
H        1.050985        1.262071       -0.111139
H       -0.974870        1.413636       -0.046533
C        0.004391       -0.694208        0.004720
H       -1.008062       -1.363193       -0.082732
H        0.935030       -1.153040       -0.001600
6
  Step 15: 15.0 fs
C       -0.007323        0.681390        0.011535
H        1.024262        1.274112       -0.077390
H       -0.940625        1.411899       -0.042308
C        0.001546       -0.695324        0.004292
H       -0.991754       -1.330149       -0.058681
H        0.976794       -1.190084       -0.010073
6
  Step 16: 16.0 fs
C       -0.009570        0.682429        0.006857
H        0.976015        1.273091       -0.039312
H       -0.888878        1.391269       -0.035820
C       -0.002857       -0.695031        0.003640
H       -0.954361       -1.284784       -0.031629
H        1.015073       -1.229660       -0.018216
6
  Step 17: 17.0 fs
C       -0.011042        0.683121        0.001842
H        0.915034        1.261746        0.000854
H       -0.831275        1.358093       -0.027738
C       -0.006828       -0.693279        0.002828
H       -0.907388       -1.235618       -0.003294
H        1.036275       -1.263409       -0.025426
6
  Step 18: 18.0 fs
C       -0.011321        0.681898       -0.003233
H        0.856794        1.246889        0.041087
H       -0.786968        1.324823       -0.018947
C       -0.008233       -0.689428        0.001895
H       -0.870930       -1.195929        0.024949
H        1.033798       -1.286280       -0.031150
6
  Step 19: 19.0 fs
C       -0.010171        0.676849       -0.008207
H        0.821139        1.238885        0.080523
H       -0.777583        1.306439       -0.010116
C       -0.005260       -0.682784        0.000795
H       -0.866425       -1.178868        0.052807
H        1.006462       -1.295951       -0.034951
6
  Step 20: 20.0 fs
C       -0.008006        0.667431       -0.013058
H        0.821139        1.245555        0.119379
H       -0.810550        1.307570       -0.001307
C        0.001996       -0.673707       -0.000524
H       -0.897052       -1.185895        0.080219
H        0.957877       -1.292675       -0.036560
6
  Step 21: 21.0 fs
C       -0.005578        0.655644       -0.017659
H        0.851386        1.264314        0.156588
H       -0.871182        1.317090        0.007431
C        0.011195       -0.663686       -0.001953
H       -0.944518       -1.205588        0.105493
H        0.897277       -1.280236       -0.035992
6
  Step 22: 22.0 fs
C       -0.003271        0.644626       -0.021659
H        0.894352        1.285122        0.188760
H       -0.937488        1.320543        0.015629
C        0.019303       -0.654136       -0.003266
H       -0.988285       -1.225152        0.126008
H        0.840377       -1.267464       -0.033619
6
  Step 23: 23.0 fs
C       -0.001160        0.636985       -0.024680
H        0.933795        1.298836        0.212160
H       -0.992864        1.309223        0.022698
C        0.023698       -0.645765       -0.004256
H       -1.015807       -1.236483        0.139722
H        0.806361       -1.267224       -0.030042
6
  Step 24: 24.0 fs
C        0.000754        0.634339       -0.026464
H        0.959547        1.300405        0.224258
H       -1.027783        1.280332        0.028163
C        0.023072       -0.639165       -0.004804
H       -1.021750       -1.235790        0.145506
H        0.806123       -1.287687       -0.025617
6
  Step 25: 25.0 fs
C        0.002473        0.637341       -0.026890
H        0.966774        1.288452        0.223922
H       -1.038008        1.235045        0.031735
C        0.018012       -0.635539       -0.004893
H       -1.005456       -1.222171        0.142994
H        0.832603       -1.323002       -0.020203
6
  Step 26: 26.0 fs
C        0.004046        0.645650       -0.025964
H        0.954789        1.264476        0.211273
H       -1.023846        1.177566        0.033375
C        0.010225       -0.636059       -0.004567
H       -0.970304       -1.197357        0.132532
H        0.869251       -1.359103       -0.013644
6
  Step 27: 27.0 fs
C        0.005600        0.657845       -0.023822
H        0.927311        1.232946        0.187757
H       -0.991036        1.115107        0.033348
C        0.001683       -0.640834       -0.003929
H       -0.925133       -1.166593        0.115392
H        0.901950       -1.384234       -0.006065
6
  Step 28: 28.0 fs
C        0.007367        0.671466       -0.020765
H        0.894106        1.202073        0.156380
H       -0.953064        1.058189        0.032366
C       -0.005409       -0.648658       -0.003164
H       -0.886711       -1.139918        0.093983
H        0.922149       -1.392152        0.002195
6
  Step 29: 29.0 fs
C        0.009590        0.683462       -0.017237
H        0.871646        1.183560        0.121366
H       -0.930862        1.019049        0.031499
C       -0.008747       -0.657556       -0.002474
H       -0.876962       -1.130132        0.071129
H        0.925924       -1.381174        0.010704
6
  Step 30: 30.0 fs
C        0.012181        0.691292       -0.013602
H        0.876415        1.188140        0.086150
H       -0.941753        1.006212        0.031492
C       -0.007282       -0.665955       -0.001907
H       -0.906428       -1.143190        0.048026
H        0.913215       -1.353095        0.019002
6
  Step 31: 31.0 fs
C        0.014604        0.694201       -0.009904
H        0.909971        1.217039        0.051239
H       -0.982633        1.019270        0.031941
C       -0.002400       -0.673343       -0.001348
H       -0.961353       -1.171705        0.024106
H        0.888477       -1.313219        0.026696
6
  Step 32: 32.0 fs
C        0.016405        0.693137       -0.006022
H        0.956187        1.260484        0.015735
H       -1.033319        1.051095        0.031763
C        0.003149       -0.679476       -0.000727
H       -1.018078       -1.203406       -0.000752
H        0.862157       -1.271097        0.033620
6
  Step 33: 33.0 fs
C        0.017421        0.689551       -0.001953
H        0.995900        1.305797       -0.020116
H       -1.073635        1.093277        0.030114
C        0.006638       -0.683704       -0.000094
H       -1.058929       -1.229468       -0.025616
H        0.849957       -1.239505        0.040004
6
  Step 34: 34.0 fs
C        0.017613        0.684700        0.002164
H        1.016498        1.343188       -0.054812
H       -1.091085        1.138732        0.026646
C        0.006275       -0.685431        0.000447
H       -1.074639       -1.245332       -0.049130
H        0.864559       -1.228175        0.046222
6
  Step 35: 35.0 fs
C        0.016980        0.679545        0.006128
H        1.012375        1.366627       -0.086427
H       -1.080337        1.182090        0.021400
C        0.002046       -0.684909        0.000840
H       -1.062064       -1.249279       -0.069960
H        0.903233       -1.235867        0.052032
6
  Step 36: 36.0 fs
C        0.015574        0.674807        0.009737
H        0.982955        1.373006       -0.113143
H       -1.041281        1.219490        0.014651
C       -0.004575       -0.683066        0.001102
H       -1.022930       -1.241808       -0.087029
H        0.950028       -1.252657        0.056481
6
  Step 37: 37.0 fs
C        0.013517        0.670907        0.012815
H        0.931986        1.361891       -0.133523
H       -0.978537        1.248776        0.006823
C       -0.011676       -0.680687        0.001284
H       -0.964310       -1.226146       -0.099739
H        0.988669       -1.268382        0.058568
6
  Step 38: 38.0 fs
C        0.010988        0.667789        0.015251
H        0.868258        1.336111       -0.146903
H       -0.902071        1.270337       -0.001573
C       -0.017262       -0.677914        0.001485
H       -0.900702       -1.209792       -0.108455
H        1.008942       -1.276426        0.057672
6
  Step 39: 39.0 fs
C        0.008117        0.664665        0.017062
H        0.807503        1.303318       -0.154096
H       -0.827997        1.288461       -0.010083
C       -0.019252       -0.674199        0.001874
H       -0.853893       -1.205025       -0.114880
H        1.006687       -1.273566        0.053600
6
  Step 40: 40.0 fs
C        0.004804        0.660081        0.018447
H        0.771601        1.275984       -0.157783
H       -0.775764        1.311158       -0.018464
C       -0.016270       -0.668943        0.002614
H       -0.842210       -1.222795       -0.120990
H        0.982598       -1.259164        0.046485
6
  Step 41: 41.0 fs
C        0.000738        0.653091        0.019631
H        0.778394        1.264555       -0.160769
H       -0.758174        1.344440       -0.026629
C       -0.009097       -0.662593        0.003627
H       -0.863256       -1.260956       -0.126294
H        0.942271       -1.235240        0.036766
6
  Step 42: 42.0 fs
C       -0.004068        0.644880        0.020531
H        0.826117        1.266500       -0.162402
H       -0.772390        1.384630       -0.034181
C       -0.000390       -0.656495        0.004622
H       -0.898240       -1.305691       -0.128063
H        0.897290       -1.207496        0.025167
6
  Step 43: 43.0 fs
C       -0.009080        0.638200        0.020795
H        0.895803        1.269385       -0.159168
H       -0.804835        1.420570       -0.040307
C        0.006819       -0.651715        0.005331
H       -0.929554       -1.343553       -0.124064
H        0.865193       -1.185841        0.012480
6
  Step 44: 44.0 fs
C       -0.013699        0.635458        0.020143
H        0.966913        1.262647       -0.148337
H       -0.841429        1.441802       -0.044213
C        0.010190       -0.648712        0.005632
H       -0.946940       -1.366474       -0.113499
H        0.862920       -1.180537       -0.000840
6
  Step 45: 45.0 fs
C       -0.017490        0.637870        0.018494
H        1.024894        1.241608       -0.129188
H       -0.872200        1.442499       -0.045418
C        0.009094       -0.647969        0.005521
H       -0.946093       -1.371030       -0.096645
H        0.893040       -1.193204       -0.014677
6
  Step 46: 46.0 fs
C       -0.020122        0.645461        0.015919
H        1.061108        1.206131       -0.102476
H       -0.891618        1.421478       -0.043806
C        0.004657       -0.650163        0.005021
H       -0.926786       -1.357124       -0.074417
H        0.941099       -1.214894       -0.028614
6
  Step 47: 47.0 fs
C       -0.021283        0.657255        0.012575
H        1.071395        1.158958       -0.069782
H       -0.898162        1.381492       -0.039549
C       -0.001349       -0.655421        0.004166
H       -0.892831       -1.328063       -0.048204
H        0.988729       -1.234626       -0.041773
6
  Step 48: 48.0 fs
C       -0.020644        0.671450        0.008682
H        1.055782        1.105056       -0.033194
H       -0.894682        1.329126       -0.033081
C       -0.007103       -0.662838        0.003012
H       -0.853843       -1.291914       -0.019736
H        1.022770       -1.245212       -0.053217
6
  Step 49: 49.0 fs
C       -0.017943        0.685667        0.004502
H        1.019709        1.051570        0.004928
H       -0.888967        1.274500       -0.024992
C       -0.010685       -0.670615        0.001622
H       -0.826397       -1.262093        0.009382
H        1.036157       -1.243606       -0.062211
6
  Step 50: 50.0 fs
C       -0.013332        0.697348        0.000267
H        0.976652        1.007937        0.042514
H       -0.892378        1.229119       -0.015751
C       -0.010450       -0.676796       -0.000011
H       -0.828153       -1.252383        0.038495
H        1.026685       -1.229798       -0.068287
6
  Step 51: 51.0 fs
C       -0.007962        0.704436       -0.003919
H        0.948110        0.984691        0.078818
H       -0.913035        1.200668       -0.005422
C       -0.006323       -0.680444       -0.001930
H       -0.862015       -1.265197        0.067530
H        0.996657       -1.206260       -0.071266
6
  Step 52: 52.0 fs
C       -0.003678        0.706041       -0.008109
H        0.952635        0.989357        0.114796
H       -0.948376        1.189216        0.006252
C       -0.000239       -0.681771       -0.004054
H       -0.912084       -1.289596        0.095199
H        0.954083       -1.178404       -0.071404
6
  Step 53: 53.0 fs
C       -0.001321        0.702589       -0.012258
H        0.987523        1.021444        0.150500
H       -0.987106        1.189595        0.019296
C        0.005038       -0.681070       -0.006163
H       -0.958890       -1.312568        0.119076
H        0.913828       -1.155149       -0.069518
6
  Step 54: 54.0 fs
C       -0.000296        0.695345       -0.016037
H        1.031721        1.073005        0.182973
H       -1.017063        1.195827        0.033244
C        0.007012       -0.678247       -0.008015
H       -0.989455       -1.325671        0.136945
H        0.894437       -1.147196       -0.066769
6
  Step 55: 55.0 fs
C        0.000270        0.685812       -0.019016
H        1.064624        1.133812        0.208190
H       -1.029981        1.203264        0.047294
C        0.004537       -0.673415       -0.009459
H       -0.997742       -1.324896        0.147362
H        0.905469       -1.160246       -0.063776
6
  Step 56: 56.0 fs
C        0.000941        0.675438       -0.020856
H        1.074062        1.194842        0.223062
H       -1.022194        1.208950        0.060581
C       -0.001540       -0.667506       -0.010492
H       -0.982823       -1.309319        0.149675
H        0.937684       -1.189403       -0.060055
6
  Step 57: 57.0 fs
C        0.002062        0.665511       -0.021347
H        1.055239        1.249132        0.225837
H       -0.994353        1.211581        0.072354
C       -0.009267       -0.661859       -0.011187
H       -0.948239       -1.280762        0.144044
H        0.972725       -1.223920       -0.054844
6
  Step 58: 58.0 fs
C        0.003942        0.657061       -0.020410
H        1.008458        1.291634        0.215923
H       -0.951253        1.211564        0.082146
C       -0.016583       -0.657447       -0.011662
H       -0.903035       -1.244723        0.131673
H        0.995923       -1.254372       -0.047859
6
  Step 59: 59.0 fs
C        0.006906        0.650714       -0.018092
H        0.938500        1.319464        0.193834
H       -0.901969        1.211207        0.089915
C       -0.021442       -0.654471       -0.012098
H       -0.863345       -1.211519        0.115039
H        0.999458       -1.274921       -0.039308
6
  Step 60: 60.0 fs
C        0.011149        0.646539       -0.014591
H        0.855409        1.333027        0.161342
H       -0.859076        1.214459        0.096098
C       -0.021936       -0.652487       -0.012699
H       -0.849443       -1.194192        0.097233
H        0.981112       -1.282983       -0.029716
6
  Step 61: 61.0 fs
C        0.016278        0.644005       -0.010240
H        0.776068        1.338417        0.121673
H       -0.834979        1.224926        0.101289
C       -0.017361       -0.651245       -0.013519
H       -0.871724       -1.198925        0.079740
H        0.943088       -1.278727       -0.019797
6
  Step 62: 62.0 fs
C        0.020926        0.642192       -0.005396
H        0.722577        1.348644        0.078682
H       -0.835809        1.242396        0.105636
C       -0.009176       -0.651248       -0.014386
H       -0.919678       -1.218059        0.061627
H        0.892556       -1.265672       -0.010390
6
  Step 63: 63.0 fs
C        0.023422        0.640550       -0.000225
H        0.711276        1.376016        0.034471
H       -0.858286        1.261592        0.108602
C       -0.000177       -0.652961       -0.015113
H       -0.973091       -1.238371        0.041871
H        0.842875       -1.251998       -0.002298
6
  Step 64: 64.0 fs
C        0.023218        0.639882        0.005308
H        0.739143        1.417499       -0.011191
H       -0.892929        1.275170        0.109429
C        0.006754       -0.656062       -0.015624
H       -1.015926       -1.250306        0.020641
H        0.812378       -1.250253        0.003970
6
  Step 65: 65.0 fs
C        0.020917        0.641809        0.011151
H        0.788823        1.457175       -0.057750
H       -0.929252        1.277373        0.107597
C        0.009713       -0.659900       -0.015937
H       -1.039204       -1.249364       -0.001085
H        0.814450       -1.270334        0.008245
6
  Step 66: 66.0 fs
C        0.017343        0.647401        0.017062
H        0.842835        1.480625       -0.102756
H       -0.958955        1.265583        0.102976
C        0.008716       -0.664444       -0.016084
H       -1.039493       -1.234655       -0.022083
H        0.844862       -1.309190        0.010241
6
  Step 67: 67.0 fs
C        0.013176        0.656691        0.022718
H        0.889026        1.480392       -0.143136
H       -0.977085        1.240287        0.095792
C        0.005201       -0.670115       -0.016076
H       -1.017701       -1.207915       -0.041168
H        0.886459       -1.353489        0.009455
6
  Step 68: 68.0 fs
C        0.009035        0.668847        0.027799
H        0.920008        1.454635       -0.176151
H       -0.982512        1.204653        0.086554
C        0.000934       -0.676891       -0.015924
H       -0.979663       -1.173680       -0.057369
H        0.922975       -1.390407        0.005592
6
  Step 69: 69.0 fs
C        0.005572        0.682454        0.032027
H        0.932092        1.405407       -0.199729
H       -0.978181        1.164086        0.075944
C       -0.002272       -0.683964       -0.015622
H       -0.938033       -1.139989       -0.070249
H        0.944330       -1.412111       -0.001276
6
  Step 70: 70.0 fs
C        0.003455        0.695749        0.035204
H        0.925226        1.338035       -0.212793
H       -0.970895        1.125545        0.064673
C       -0.002532       -0.689976       -0.015119
H       -0.911819       -1.117605       -0.080181
H        0.945997       -1.415299       -0.010822
6
  Step 71: 71.0 fs
C        0.003083        0.706833        0.037279
H        0.904492        1.261468       -0.215865
H       -0.969397        1.096043        0.053296
C        0.001391       -0.693673       -0.014343
H       -0.916644       -1.114783       -0.087944
H        0.927770       -1.400022       -0.022566
6
  Step 72: 72.0 fs
C        0.003975        0.713903        0.038446
H        0.882504        1.188684       -0.211939
H       -0.979371        1.080260        0.042043
C        0.008802       -0.694539       -0.013313
H       -0.949792       -1.130462       -0.093348
H        0.894011       -1.369645       -0.035983
6
  Step 73: 73.0 fs
C        0.004508        0.715550        0.039113
H        0.878354        1.134288       -0.206310
H       -0.999230        1.079200        0.030972
C        0.017186       -0.692538       -0.012141
H       -0.993066       -1.156163       -0.095054
H        0.855095       -1.331931       -0.050743
6
  Step 74: 74.0 fs
C        0.003038        0.711284        0.039582
H        0.905400        1.107192       -0.202904
H       -1.021339        1.090964        0.020262
C        0.023516       -0.687455       -0.010898
H       -1.028303       -1.183191       -0.091844
H        0.827529       -1.299316       -0.067033
6
  Step 75: 75.0 fs
C       -0.000486        0.701882        0.039694
H        0.956592        1.104958       -0.200127
H       -1.036917        1.112367        0.010340
C        0.025412       -0.679061       -0.009572
H       -1.044400       -1.205712       -0.083267
H        0.827391       -1.283964       -0.085577
6
  Step 76: 76.0 fs
C       -0.004853        0.688927        0.039043
H        1.011640        1.118619       -0.193333
H       -1.039519        1.140040        0.001832
C        0.022280       -0.668056       -0.008175
H       -1.036814       -1.220528       -0.069538
H        0.856636       -1.287280       -0.106472
6
  Step 77: 77.0 fs
C       -0.008839        0.674250        0.037351
H        1.052757        1.139427       -0.179211
H       -1.026009        1.170948       -0.004578
C        0.015348       -0.656282       -0.006854
H       -1.005861       -1.226420       -0.051293
H        0.901051       -1.298551       -0.128012
6
  Step 78: 78.0 fs
C       -0.011625        0.659692        0.034545
H        1.069734        1.160903       -0.156722
H       -0.996411        1.202658       -0.008277
C        0.006493       -0.645794       -0.005815
H       -0.956313       -1.224368       -0.029459
H        0.943530       -1.305327       -0.147598
6
  Step 79: 79.0 fs
C       -0.012692        0.646974        0.030707
H        1.058750        1.178628       -0.126506
H       -0.953710        1.233642       -0.008790
C       -0.002415       -0.638115       -0.005218
H       -0.898295       -1.218663       -0.005126
H        0.972555       -1.299753       -0.163045
6
  Step 80: 80.0 fs
C       -0.011724        0.637502        0.026013
H        1.020877        1.189869       -0.090278
H       -0.903427        1.263528       -0.005816
C       -0.009534       -0.633933       -0.005160
H       -0.847607       -1.217853        0.020814
H        0.982687       -1.278722       -0.172983
6
  Step 81: 81.0 fs
C       -0.008690        0.632114        0.020702
H        0.962260        1.193948       -0.050559
H       -0.852968        1.293074        0.000805
C       -0.013308       -0.633182       -0.005716
H       -0.821096       -1.232356        0.048171
H        0.973145       -1.242630       -0.176831
6
  Step 82: 82.0 fs
C       -0.004126        0.630876        0.015059
H        0.895767        1.193523       -0.010394
H       -0.810144        1.323434        0.011137
C       -0.013389       -0.635635       -0.006906
H       -0.825129       -1.266049        0.077010
H        0.947451       -1.194933       -0.174799
6
  Step 83: 83.0 fs
C        0.000617        0.633045        0.009357
H        0.841720        1.196006        0.027476
H       -0.781046        1.354731        0.025088
C       -0.011174       -0.641242       -0.008564
H       -0.850270       -1.311105        0.106177
H        0.914692       -1.142740       -0.168153
6
  Step 84: 84.0 fs
C        0.003763        0.637414        0.003774
H        0.821659        1.211081        0.061790
H       -0.768354        1.385017        0.042246
C       -0.009111       -0.649572       -0.010307
H       -0.880984       -1.354957        0.133170
H        0.890753       -1.097099       -0.159397
6
  Step 85: 85.0 fs
C        0.004435        0.643271       -0.001576
H        0.842548        1.240904        0.092455
H       -0.770910        1.410507        0.061764
C       -0.009597       -0.659610       -0.011700
H       -0.904873       -1.387915        0.155351
H        0.894082       -1.069675       -0.151461
6
  Step 86: 86.0 fs
C        0.003249        0.650833       -0.006467
H        0.891203        1.275629        0.118254
H       -0.784760        1.426916        0.082416
C       -0.013584       -0.670450       -0.012526
H       -0.914860       -1.404911        0.170793
H        0.930846       -1.064784       -0.145298
6
  Step 87: 87.0 fs
C        0.001336        0.660408       -0.010575
H        0.947924        1.302664        0.136825
H       -0.804928        1.431003        0.102830
C       -0.019977       -0.681635       -0.012867
H       -0.908620       -1.404772        0.178536
H        0.986944       -1.076888       -0.139054
6
  Step 88: 88.0 fs
C       -0.000437        0.671737       -0.013631
H        0.997326        1.314061        0.146228
H       -0.826977        1.421489        0.121754
C       -0.026788       -0.692659       -0.012917
H       -0.888095       -1.389674        0.178655
H        1.041267       -1.097512       -0.130514
6
  Step 89: 89.0 fs
C       -0.001535        0.684010       -0.015481
H        1.029940        1.306886        0.145537
H       -0.847914        1.399244        0.138261
C       -0.032137       -0.702578       -0.012869
H       -0.859916       -1.365505        0.172430
H        1.078166       -1.120293       -0.118651
6
  Step 90: 90.0 fs
C       -0.001634        0.696119       -0.016083
H        1.040856        1.281601        0.134740
H       -0.866518        1.367023        0.151860
C       -0.034375       -0.710064       -0.012930
H       -0.835606       -1.341877        0.162397
H        1.089372       -1.141468       -0.103514
6
  Step 91: 91.0 fs
C       -0.000593        0.706849       -0.015498
H        1.029178        1.241277        0.114631
H       -0.883191        1.328840        0.162495
C       -0.032214       -0.713778       -0.013294
H       -0.828368       -1.329296        0.151521
H        1.072337       -1.159090       -0.085794
6
  Step 92: 92.0 fs
C        0.001436        0.714978       -0.013884
H        0.998849        1.191642        0.086813
H       -0.899333        1.289153        0.170412
C       -0.025393       -0.713020       -0.013984
H       -0.844400       -1.332173        0.141212
H        1.029463       -1.172711       -0.066591
6
  Step 93: 93.0 fs
C        0.003716        0.719303       -0.011474
H        0.960991        1.141764        0.053667