6
  Step 0: 0.0 fs
C       -0.000000        0.665094        0.000000
H        0.925303        1.240828        0.000000
H       -0.925306        1.240826       -0.000004
C        0.000000       -0.665095        0.000001
H       -0.925310       -1.240815       -0.000004
H        0.925310       -1.240819       -0.000008
6
  Step 1: 1.0 fs
C       -0.002141        0.652874       -0.006660
H        0.949156        1.305649        0.045445
H       -0.874301        1.186423        0.010483
C       -0.003702       -0.651160        0.001799
H       -0.979582       -1.257039        0.018455
H        0.974295       -1.255434       -0.016508
6
  Step 2: 2.0 fs
C       -0.001425        0.641754       -0.013049
H        0.959683        1.358389        0.088470
H       -0.847137        1.147101        0.020992
C       -0.007091       -0.639935        0.003525
H       -1.019195       -1.264858        0.036021
H        1.008064       -1.262268       -0.032094
6
  Step 3: 3.0 fs
C        0.003860        0.632758       -0.018932
H        0.951239        1.391877        0.126306
H       -0.861338        1.133876        0.032120
C       -0.009919       -0.633405        0.005123
H       -1.036613       -1.260139        0.051756
H        1.018881       -1.257879       -0.045761
6
  Step 4: 4.0 fs
C        0.012981        0.627594       -0.024054
H        0.923142        1.402821        0.156563
H       -0.909519        1.142496        0.043692
C       -0.012030       -0.632732        0.006545
H       -1.029498       -1.242000        0.064862
H        1.004575       -1.242104       -0.056647
6
  Step 5: 5.0 fs
C        0.023647        0.627852       -0.028110
H        0.878365        1.391302        0.177531
H       -0.968455        1.159616        0.054201
C       -0.013371       -0.638010        0.007757
H       -0.999918       -1.212364        0.074762
H        0.967688       -1.217566       -0.064157
6
  Step 6: 6.0 fs
C        0.033580        0.633747       -0.030880
H        0.824049        1.361724        0.188705
H       -1.018637        1.174522        0.062058
C       -0.013957       -0.647989        0.008718
H       -0.955467       -1.176438        0.081283
H        0.916456       -1.190178       -0.068171
6
  Step 7: 7.0 fs
C        0.040698        0.643794       -0.032381
H        0.773817        1.325396        0.191911
H       -1.049116        1.181719        0.066296
C       -0.013811       -0.660048        0.009384
H       -0.911520       -1.143540        0.084986
H        0.866740       -1.169993       -0.069385
6
  Step 8: 8.0 fs
C        0.042856        0.655278       -0.032940
H        0.748387        1.301185        0.192149
H       -1.055122        1.179318        0.066525
C       -0.012899       -0.670803        0.009710
H       -0.889996       -1.125777        0.087231
H        0.840104       -1.169808       -0.069317
6
  Step 9: 9.0 fs
C        0.038585        0.665663       -0.032944
H        0.764998        1.304996        0.194485
H       -1.036034        1.167703        0.062752
C       -0.011118       -0.677794        0.009658
H       -0.906083       -1.130864        0.089138
H        0.850146       -1.197324       -0.069113
6
  Step 10: 10.0 fs
C        0.028705        0.674281       -0.032311
H        0.818522        1.332346        0.197600
H       -0.995553        1.149381        0.055378
C       -0.008452       -0.680994        0.009222
H       -0.952342       -1.154830        0.090082
H        0.888301       -1.246877       -0.068149
6
  Step 11: 11.0 fs
C        0.016089        0.681644       -0.030651
H        0.886399        1.364767        0.195633
H       -0.943956        1.129922        0.045389
C       -0.005078       -0.681964        0.008435
H       -1.006719       -1.186565        0.088389
H        0.933257       -1.304228       -0.064893
6
  Step 12: 12.0 fs
C        0.004240        0.687731       -0.027803
H        0.947963        1.387369        0.184516
H       -0.900682        1.119167        0.034501
C       -0.001259       -0.682182        0.007350
H       -1.050045       -1.216226        0.082902
H        0.967361       -1.356286       -0.058401
6
  Step 13: 13.0 fs
C       -0.003648        0.691778       -0.023872
H        0.990678        1.392875        0.163207
H       -0.889385        1.128975        0.024496
C        0.002741       -0.682498        0.006028
H       -1.071363       -1.237756        0.073314
H        0.980975       -1.394477       -0.048560
6
  Step 14: 14.0 fs
C       -0.006268        0.693354       -0.019006
H        1.008464        1.379034        0.132499
H       -0.917522        1.163282        0.015697
C        0.006656       -0.683266        0.004535
H       -1.066162       -1.248138        0.059896
H        0.970707       -1.414180       -0.035789
6
  Step 15: 15.0 fs
C       -0.004837        0.693028       -0.013334
H        0.999836        1.346647        0.094191
H       -0.966933        1.212489        0.007140
C        0.010220       -0.684509        0.002936
H       -1.034576       -1.246546        0.043269
H        0.937694       -1.413893       -0.020797
6
  Step 16: 16.0 fs
C       -0.001432        0.691596       -0.007074
H        0.967658        1.299274        0.050707
H       -1.013528        1.262677       -0.001732
C        0.013162       -0.685896        0.001291
H       -0.981255       -1.234295        0.024323
H        0.887585       -1.395398       -0.004448
6
  Step 17: 17.0 fs
C        0.002053        0.689304       -0.000540
H        0.920917        1.244307        0.004831
H       -1.041537        1.303566       -0.010755
C        0.015229       -0.686532       -0.000348
H       -0.916931       -1.215714        0.004110
H        0.831903       -1.365023        0.012379
6
  Step 18: 18.0 fs
C        0.003672        0.685679        0.005958
H        0.877534        1.194281       -0.041081
H       -1.043713        1.329335       -0.019463
C        0.016263       -0.684779       -0.001944
H       -0.860149       -1.199341       -0.016411
H        0.789103       -1.334846        0.029151
6
  Step 19: 19.0 fs
C        0.001448        0.679949        0.012258
H        0.860930        1.164022       -0.086559
H       -1.018383        1.337320       -0.027362
C        0.016321       -0.678758       -0.003464
H       -0.833196       -1.196444       -0.036847
H        0.779221       -1.318929        0.046050
6
  Step 20: 20.0 fs
C       -0.005180        0.672137        0.018294
H        0.881723        1.159598       -0.132207
H       -0.968417        1.327527       -0.034040
C        0.015641       -0.668170       -0.004843
H       -0.846390       -1.212797       -0.057180
H        0.808681       -1.321388        0.063265
6
  Step 21: 21.0 fs
C       -0.014306        0.663526        0.023791
H        0.925960        1.172457       -0.175746
H       -0.902161        1.303522       -0.039304
C        0.014322       -0.655303       -0.005988
H       -0.887686       -1.241999       -0.076581
H        0.863862       -1.331711        0.079645
6
  Step 22: 22.0 fs
C       -0.022791        0.655465        0.028330
H        0.971974        1.189676       -0.212258
H       -0.835733        1.274887       -0.043537
C        0.012307       -0.643402       -0.006834
H       -0.935755       -1.272033       -0.093274
H        0.924511       -1.335977        0.093112
6
  Step 23: 23.0 fs
C       -0.027501        0.648358        0.031662
H        1.005068        1.202343       -0.237504
H       -0.792857        1.258391       -0.048185
C        0.009612       -0.635048       -0.007361
H       -0.974174       -1.293578       -0.105580
H        0.975145       -1.325444        0.101916
6
  Step 24: 24.0 fs
C       -0.026414        0.642246        0.033725
H        1.018320        1.205995       -0.249055
H       -0.792140        1.268754       -0.054950
C        0.006350       -0.631806       -0.007572
H       -0.993900       -1.301767       -0.112445
H        1.006803       -1.297092        0.105049
6
  Step 25: 25.0 fs
C       -0.019940        0.638220        0.034399
H        1.009789        1.199073       -0.245944
H       -0.828109        1.302051       -0.063335
C        0.002653       -0.634339       -0.007482
H       -0.991288       -1.295172       -0.113388
H        1.015637       -1.251953        0.102168
6
  Step 26: 26.0 fs
C       -0.010176        0.637902        0.033505
H        0.981263        1.182297       -0.228471
H       -0.878720        1.340563       -0.070870
C       -0.001394       -0.642372       -0.007113
H       -0.966893       -1.275171       -0.108434
H        1.002305       -1.194261        0.093525
6
  Step 27: 27.0 fs
C        0.000634        0.641876        0.031012
H        0.939153        1.159252       -0.198447
H       -0.924780        1.369301       -0.075460
C       -0.005748       -0.654518       -0.006479
H       -0.926099       -1.246419       -0.098213
H        0.972824       -1.131391        0.080005
6
  Step 28: 28.0 fs
C        0.010247        0.649253        0.027160
H        0.897282        1.137877       -0.159776
H       -0.955048        1.380618       -0.076117
C       -0.010337       -0.668245       -0.005586
H       -0.881469       -1.218171       -0.084185
H        0.940523       -1.073962        0.063197
6
  Step 29: 29.0 fs
C        0.016201        0.658127        0.022393
H        0.877194        1.130356       -0.117788
H       -0.964166        1.372239       -0.072644
C       -0.014869       -0.680324       -0.004421
H       -0.853359       -1.204281       -0.068553
H        0.924690       -1.033778        0.044986
6
  Step 30: 30.0 fs
C        0.016740        0.666643        0.017051
H        0.895693        1.145936       -0.075760
H       -0.950931        1.345335       -0.065318
C       -0.018762       -0.688134       -0.002975
H       -0.860037       -1.216729       -0.053103
H        0.939584       -1.018407        0.026573
6
  Step 31: 31.0 fs
C        0.012509        0.674073        0.011193
H        0.945741        1.180423       -0.032935
H       -0.918639        1.304230       -0.054812
C       -0.021615       -0.691141       -0.001316
H       -0.899114       -1.254179       -0.037987
H        0.980672       -1.026996        0.008119
6
  Step 32: 32.0 fs
C        0.006165        0.680333        0.004928
H        1.003586        1.220513        0.011436
H       -0.877198        1.257562       -0.042256
C       -0.023437       -0.690562        0.000418
H       -0.949736       -1.303039       -0.022643
H        1.029246       -1.052981       -0.010199
6
  Step 33: 33.0 fs
C        0.000883        0.684874       -0.001431
H        1.048803        1.254933        0.055925
H       -0.845281        1.219365       -0.029053
C       -0.024287       -0.687907        0.002092
H       -0.991633       -1.349034       -0.007091
H        1.067021       -1.088876       -0.027659
6
  Step 34: 34.0 fs
C       -0.000604        0.686764       -0.007527
H        1.070043        1.277376        0.098008
H       -0.844712        1.204782       -0.016060
C       -0.024146       -0.684313        0.003597
H       -1.012961       -1.382627        0.008118
H        1.082574       -1.128431       -0.043285
6
  Step 35: 35.0 fs
C        0.002502        0.685893       -0.013096
H        1.062921        1.285123        0.135138
H       -0.880687        1.217369       -0.003042
C       -0.023003       -0.680572        0.004849
H       -1.008923       -1.398616        0.022257
H        1.071060       -1.166941       -0.056173
6
  Step 36: 36.0 fs
C        0.008663        0.683355       -0.017914
H        1.027974        1.277866        0.165213
H       -0.934968        1.245572        0.010188
C       -0.020914       -0.677232        0.005784
H       -0.979524       -1.394937        0.034606
H        1.032662       -1.201115       -0.065596
6
  Step 37: 37.0 fs
C        0.015652        0.680348       -0.021762
H        0.970407        1.257817        0.186911
H       -0.985138        1.275004        0.022992
C       -0.018017       -0.674539        0.006365
H       -0.929066       -1.372390        0.044544
H        0.972230       -1.229289       -0.071125
6
  Step 38: 38.0 fs
C        0.021446        0.677360       -0.024532
H        0.901734        1.231101        0.200476
H       -1.016942        1.295979        0.034425
C       -0.014483       -0.672226        0.006574
H       -0.867444       -1.335615        0.051728
H        0.900039       -1.252282       -0.072809
6
  Step 39: 39.0 fs
C        0.024026        0.674025       -0.026361
H        0.841738        1.209430        0.208871
H       -1.024098        1.303444        0.043672
C       -0.010332       -0.669253        0.006409
H       -0.812497       -1.294890        0.056347
H        0.832096       -1.274482       -0.071335
6
  Step 40: 40.0 fs
C        0.021553        0.669533       -0.027596
H        0.813622        1.207419        0.217271
H       -1.005640        1.295405        0.050119
C       -0.005257       -0.664025        0.005857
H       -0.788078       -1.264975        0.059272
H        0.786362       -1.303105       -0.067833
6
  Step 41: 41.0 fs
C        0.013802        0.663817       -0.028361
H        0.825901        1.230488        0.227735
H       -0.965057        1.272419        0.053401
C        0.000991       -0.655875        0.004899
H       -0.809400       -1.254762        0.061218
H        0.772736       -1.342371       -0.063017
6
  Step 42: 42.0 fs
C        0.002926        0.658121       -0.028288
H        0.864046        1.268134        0.235749
H       -0.911258        1.238473        0.053563
C        0.007882       -0.646519        0.003571
H       -0.867532       -1.257149        0.061533
H        0.786384       -1.387256       -0.056558
6
  Step 43: 43.0 fs
C       -0.007779        0.653725       -0.026986
H        0.907272        1.305276        0.235471
H       -0.861036        1.203109        0.051490
C        0.014461       -0.638891        0.001950
H       -0.939489       -1.258003        0.058897
H        0.814013       -1.426653       -0.047768
6
  Step 44: 44.0 fs
C       -0.015003        0.650882       -0.024387
H        0.941128        1.331655        0.223887
H       -0.838309        1.181460        0.048994
C        0.020028       -0.635280        0.000113
H       -1.005371       -1.247889        0.052545
H        0.843058       -1.450633       -0.036417
6
  Step 45: 45.0 fs
C       -0.016669        0.649437       -0.020604
H        0.958010        1.342360        0.200609
H       -0.859464        1.184506        0.047399
C        0.024190       -0.636778       -0.001872
H       -1.052896       -1.223554        0.042429
H        0.865144       -1.453662       -0.022831
6
  Step 46: 46.0 fs
C       -0.013259        0.649988       -0.015701
H        0.954914        1.336012        0.166793
H       -0.914894        1.206572        0.045888
C        0.026675       -0.643421       -0.003945
H       -1.075581       -1.185703        0.028937
H        0.876169       -1.434691       -0.007714
6
  Step 47: 47.0 fs
C       -0.006834        0.653310       -0.009771
H        0.932634        1.314143        0.124628
H       -0.979699        1.232630        0.042862
C        0.027212       -0.654330       -0.006046
H       -1.071166       -1.137540        0.012739
H        0.875949       -1.396690        0.008092
6
  Step 48: 48.0 fs
C        0.000533        0.659247       -0.003053
H        0.896695        1.281876        0.077125
H       -1.033457        1.251214        0.037556
C        0.025512       -0.667781       -0.008132
H       -1.041668       -1.084396       -0.005305
H        0.868686       -1.346690        0.023791
6
  Step 49: 49.0 fs
C        0.006900        0.666557        0.004087
H        0.859663        1.249360        0.027719
H       -1.064661        1.256863        0.030046
C        0.021449       -0.681377       -0.010171
H       -0.995432       -1.034007       -0.024227
H        0.863257       -1.295347        0.038887
6
  Step 50: 50.0 fs
C        0.010270        0.673359        0.011314
H        0.840470        1.230799       -0.021111
H       -1.068265        1.248135        0.020798
C        0.015573       -0.692486       -0.012134
H       -0.950332       -0.996727       -0.043264
H        0.870802       -1.254058        0.053331
6
  Step 51: 51.0 fs
C        0.009404        0.678143        0.018443
H        0.852810        1.235922       -0.068989
H       -1.043945        1.226183        0.010435
C        0.009590       -0.699045       -0.013924
H       -0.931785       -0.983710       -0.062369
H        0.897158       -1.229096        0.067102
6
  Step 52: 52.0 fs
C        0.005084        0.680651        0.025280
H        0.890433        1.260249       -0.115355
H       -0.996393        1.194651       -0.000404
C        0.005349       -0.700366       -0.015351
H       -0.954785       -1.000927       -0.081923
H        0.936919       -1.218804        0.079444
6
  Step 53: 53.0 fs
C       -0.000273        0.681281        0.031460
H        0.934266        1.290492       -0.157174
H       -0.937615        1.160783       -0.011304
C        0.002974       -0.697178       -0.016289
H       -1.006210       -1.044212       -0.101101
H        0.977796       -1.217347        0.088923
6
  Step 54: 54.0 fs
C       -0.003723        0.680026        0.036628
H        0.968077        1.315214       -0.190598
H       -0.889111        1.136532       -0.022560
C        0.001437       -0.690886       -0.016744
H       -1.059458       -1.102949       -0.117759
H        1.008114       -1.219046        0.094146
6
  Step 55: 55.0 fs
C       -0.002730        0.676504        0.040597
H        0.983072        1.327819       -0.212696
H       -0.875040        1.135053       -0.035392
C       -0.000090       -0.682888       -0.016773
H       -1.094466       -1.166387       -0.129863
H        1.020423       -1.220026        0.094268
6
  Step 56: 56.0 fs
C        0.003149        0.671055        0.043246
H        0.976401        1.325450       -0.221834
H       -0.900298        1.159219       -0.050288
C       -0.002008       -0.674404       -0.016436
H       -1.101090       -1.226043       -0.136162
H        1.011820       -1.218299        0.089051
6
  Step 57: 57.0 fs
C        0.011949        0.665107        0.044377
H        0.949644        1.308046       -0.217595
H       -0.945030        1.198051       -0.065343
C       -0.004540       -0.666473       -0.015805
H       -1.076061       -1.275714       -0.136071
H        0.983667       -1.213644        0.078795
6
  Step 58: 58.0 fs
C        0.021134        0.660115        0.043857
H        0.908728        1.278599       -0.200956
H       -0.986264        1.237862       -0.077852
C       -0.007932       -0.659876       -0.014960
H       -1.020823       -1.311181       -0.129545
H        0.941608       -1.207646        0.064273
6
  Step 59: 59.0 fs
C        0.028469        0.656720        0.041792
H        0.865590        1.244615       -0.174778
H       -1.009993        1.269401       -0.085927
C       -0.012462       -0.654977       -0.013982
H       -0.941384       -1.330550       -0.117103
H        0.895653       -1.203737        0.046659
6
  Step 60: 60.0 fs
C        0.031851        0.654622        0.038532
H        0.838790        1.218591       -0.143747
H       -1.010125        1.287901       -0.088646
C       -0.018178       -0.651562       -0.012909
H       -0.849943       -1.335912       -0.099996
H        0.858934       -1.206527        0.027282
6
  Step 61: 61.0 fs
C        0.029682        0.653166        0.034439
H        0.846035        1.212454       -0.111912
H       -0.985618        1.291685       -0.085744
C       -0.024285       -0.648814       -0.011694
H       -0.766941       -1.336442       -0.080337
H        0.842729       -1.219020        0.007163
6
  Step 62: 62.0 fs
C        0.022166        0.652453        0.029595
H        0.887751        1.225821       -0.079329
H       -0.939569        1.281718       -0.077480
C       -0.028921       -0.645675       -0.010243
H       -0.717531       -1.348546       -0.060529
H        0.850260       -1.239183       -0.013100
6
  Step 63: 63.0 fs
C        0.011514        0.653324        0.023974
H        0.945942        1.246116       -0.044056
H       -0.880375        1.262581       -0.064724
C       -0.030428       -0.641976       -0.008578
H       -0.715502       -1.383124       -0.041576
H        0.875615       -1.260177       -0.032979
6
  Step 64: 64.0 fs
C        0.000801        0.656108        0.017761
H        1.000613        1.260736       -0.005910
H       -0.824402        1.244733       -0.049149
C       -0.028771       -0.639301       -0.006873
H       -0.751243       -1.430811       -0.022893
H        0.908554       -1.274243       -0.051704
6
  Step 65: 65.0 fs
C       -0.006874        0.660000        0.011319
H        1.038635        1.262681        0.033425
H       -0.794902        1.244481       -0.032733
C       -0.024884       -0.639692       -0.005293
H       -0.804481       -1.472479       -0.004116
H        0.939378       -1.275956       -0.068343
6
  Step 66: 66.0 fs
C       -0.009640        0.663977        0.004963
H        1.053560        1.249657        0.071573
H       -0.806804        1.273089       -0.016160
C       -0.019665       -0.644223       -0.003932
H       -0.858453       -1.494287        0.014305
H        0.961132       -1.263128       -0.082005
6
  Step 67: 67.0 fs
C       -0.008115        0.668156       -0.001114
H        1.043675        1.222339        0.106180
H       -0.849752        1.322844        0.001280
C       -0.013841       -0.652857       -0.002829
H       -0.902447       -1.490078        0.031526
H        0.970462       -1.236713       -0.092046
6
  Step 68: 68.0 fs
C       -0.004334        0.673183       -0.006701
H        1.011595        1.183904        0.135342
H       -0.900491        1.375452        0.019658
C       -0.008129       -0.664733       -0.001985
H       -0.930164       -1.458969        0.046611
H        0.967977       -1.200447       -0.098202
6
  Step 69: 69.0 fs
C       -0.000335        0.679035       -0.011584
H        0.965429        1.140501        0.158138
H       -0.941048        1.416523        0.038044
C       -0.003345       -0.678371       -0.001368
H       -0.938744       -1.403822        0.058714
H        0.958699       -1.160542       -0.100693
6
  Step 70: 70.0 fs
C        0.001930        0.684828       -0.015687
H        0.920864        1.101829        0.175536
H       -0.961893        1.438492        0.055235
C       -0.000312       -0.691873       -0.000922
H       -0.929252       -1.331060        0.067212
H        0.951545       -1.124797       -0.100242
6
  Step 71: 71.0 fs
C        0.000565        0.689275       -0.019126
H        0.898704        1.079217        0.190647
H       -0.959272        1.438495        0.070149
C        0.000611       -0.703162       -0.000617
H       -0.908854       -1.251393        0.072003
H        0.955955       -1.100386       -0.097741
6
  Step 72: 72.0 fs
C       -0.005240        0.691451       -0.021991
H        0.911180        1.078931        0.205936
H       -0.933753        1.416923        0.081943
C        0.000277       -0.710310       -0.000532
H       -0.893189       -1.179769        0.073861
H        0.975398       -1.090939       -0.093585
6
  Step 73: 73.0 fs
C       -0.014122        0.691214       -0.024050
H        0.949344        1.097185        0.219367
H       -0.890595        1.377567        0.090226
C        0.000658       -0.712007       -0.000844
H       -0.902030       -1.130865        0.074199
H        1.004146       -1.095707       -0.087407
6
  Step 74: 74.0 fs
C       -0.023226        0.688613       -0.024944
H        0.993063        1.125000        0.226209
H       -0.841853        1.329387        0.095578
C        0.003071       -0.708128       -0.001667
H       -0.942266       -1.110005        0.073671
H        1.031591       -1.111420       -0.078627
6
  Step 75: 75.0 fs
C       -0.029346        0.683206       -0.024560
H        1.025832        1.154512        0.222920
H       -0.807888        1.287991        0.100157
C        0.006971       -0.699696       -0.002938
H       -0.999054       -1.111307        0.071343
H        1.048091       -1.134230       -0.067028
6
  Step 76: 76.0 fs
C       -0.029904        0.674439       -0.023046
H        1.038513        1.180578        0.208166
H       -0.809831        1.269708        0.106882
C        0.011008       -0.688173       -0.004516
H       -1.050849       -1.125446        0.065987
H        1.047742       -1.160685       -0.052875
6
  Step 77: 77.0 fs
C       -0.024503        0.663105       -0.020472
H        1.027789        1.200197        0.182247
H       -0.849552        1.275905        0.115955
C        0.014114       -0.675085       -0.006276
H       -1.082443       -1.144780        0.057075
H        1.028486       -1.188055       -0.036814
6
  Step 78: 78.0 fs
C       -0.014977        0.651505       -0.016719
H        0.994728        1.212133        0.146582
H       -0.907328        1.291811        0.124116
C        0.015623       -0.661981       -0.008121
H       -1.086386       -1.163919        0.044753
H        0.991893       -1.214650       -0.019710
6
  Step 79: 79.0 fs
C       -0.003681        0.641978       -0.011757
H        0.944700        1.217350        0.103497
H       -0.961754        1.302244        0.128104
C        0.015085       -0.650350       -0.009973
H       -1.060940       -1.179188        0.029616
H        0.942807       -1.240068       -0.002507
6
  Step 80: 80.0 fs
C        0.007264        0.635989       -0.005758
H        0.888576        1.220364        0.056002
H       -0.999608        1.298729        0.126331
C        0.012228       -0.641414       -0.011776
H       -1.009225       -1.188522        0.012548
H        0.888785       -1.265308        0.013876
6
  Step 81: 81.0 fs
C        0.015897        0.633920        0.000994
H        0.842453        1.229901        0.007028
H       -1.014873        1.278320        0.118541
C        0.007136       -0.635857       -0.013499
H       -0.940042       -1.192152       -0.005336
H        0.838830       -1.292342        0.028636
6
  Step 82: 82.0 fs
C        0.020718        0.635377        0.008265
H        0.821359        1.255241       -0.041923
H       -1.006340        1.241567        0.105258
C        0.000672       -0.633637       -0.015120
H       -0.869924       -1.194310       -0.022885
H        0.800846       -1.322549        0.041151
6
  Step 83: 83.0 fs
C        0.021583        0.639972        0.015852
H        0.827822        1.297231       -0.090340
H       -0.977090        1.191934        0.087562
C       -0.005373       -0.634037       -0.016588
H       -0.822312       -1.204267       -0.039350
H        0.779216       -1.354883        0.050864
6
  Step 84: 84.0 fs
C        0.019939        0.647561        0.023410
H        0.850557        1.345890       -0.136433
H       -0.935934        1.136462        0.066991
C       -0.009154       -0.636255       -0.017795
H       -0.816311       -1.230775       -0.054639
H        0.773918       -1.385509        0.057204
6
  Step 85: 85.0 fs
C        0.018170        0.657566        0.030445
H        0.875366        1.388840       -0.176839
H       -0.900125        1.086656        0.045263
C       -0.010263       -0.640340       -0.018646
H       -0.850273       -1.270624       -0.068595
H        0.781529       -1.409281        0.059663
6
  Step 86: 86.0 fs
C        0.018841        0.668714        0.036518
H        0.892125        1.417629       -0.208240
H       -0.892866        1.055979        0.023420
C       -0.009612       -0.646969       -0.019121
H       -0.905586       -1.310045       -0.080297
H        0.797106       -1.421773        0.057951
6
  Step 87: 87.0 fs
C        0.023170        0.679840        0.041372
H        0.895586        1.428338       -0.228346
H       -0.925595        1.050639        0.001328
C       -0.008238       -0.656424       -0.019241
H       -0.962977       -1.336473       -0.088604
H        0.815863       -1.420603        0.052092
6
  Step 88: 88.0 fs
C        0.029918        0.690442        0.044833
H        0.884741        1.420731       -0.236182
H       -0.983846        1.064923       -0.020771
C       -0.006861       -0.668248       -0.019032
H       -1.009179       -1.343274       -0.092699
H        0.834416       -1.405916        0.042426
6
  Step 89: 89.0 fs
C        0.036719        0.700102        0.046765
H        0.862577        1.397956       -0.232249
H       -1.042855        1.089064       -0.041378
C       -0.005978       -0.681403       -0.018528
H       -1.036442       -1.328715       -0.092157
H        0.851377       -1.380218        0.029543
6
  Step 90: 90.0 fs
C        0.041429        0.707965        0.047182
H        0.836705        1.367085       -0.218885
H       -1.084488        1.115778       -0.058724
C       -0.005974       -0.694533       -0.017761
H       -1.041060       -1.294283       -0.086901
H        0.867378       -1.347770        0.014174
6
  Step 91: 91.0 fs
C        0.042299        0.712801        0.046298
H        0.819341        1.338888       -0.200160
H       -1.099482        1.140798       -0.071473
C       -0.007039       -0.706183       -0.016752
H       -1.023399       -1.244149       -0.077228
H        0.884400       -1.313587       -0.002959
6
  Step 92: 92.0 fs
C        0.038101        0.713480        0.044391
H        0.823030        1.323885       -0.180142
H       -1.084695        1.161783       -0.078783
C       -0.008913       -0.714937       -0.015496
H       -0.989380       -1.185549       -0.063882
H        0.904213       -1.282012       -0.021259
6
  Step 93: 93.0 fs
C        0.028830        0.709687        0.041535
H        0.851023        1.324547       -0.159794