6
  Step 0: 0.0 fs
C       -0.000001        0.665092       -0.000001
H        0.925311        1.240807        0.000007
H       -0.925306        1.240810       -0.000008
C       -0.000001       -0.665091        0.000002
H       -0.925307       -1.240815       -0.000002
H        0.925316       -1.240815       -0.000017
6
  Step 1: 1.0 fs
C       -0.009940        0.658692        0.005527
H        0.961849        1.253928       -0.013402
H       -0.891277        1.180601       -0.033616
C        0.007772       -0.657462       -0.001274
H       -0.885627       -1.189463        0.008298
H        0.840866       -1.259709       -0.011916
6
  Step 2: 2.0 fs
C       -0.016761        0.652374        0.010894
H        0.985559        1.260723       -0.026154
H       -0.878986        1.135095       -0.066739
C        0.014947       -0.648841       -0.002488
H       -0.864176       -1.148119        0.016329
H        0.779203       -1.289777       -0.023523
6
  Step 3: 3.0 fs
C       -0.018383        0.646419        0.016042
H        0.989538        1.258545       -0.037476
H       -0.903838        1.114127       -0.100159
C        0.021269       -0.638840       -0.003572
H       -0.874693       -1.123404        0.023983
H        0.754634       -1.339521       -0.034835
6
  Step 4: 4.0 fs
C       -0.015197        0.642177        0.020797
H        0.972170        1.247719       -0.046716
H       -0.957425        1.113570       -0.133036
C        0.026854       -0.629177       -0.004478
H       -0.914638       -1.113369        0.030936
H        0.761111       -1.402736       -0.045489
6
  Step 5: 5.0 fs
C       -0.009245        0.641344        0.024803
H        0.936666        1.231204       -0.053487
H       -1.016878        1.121945       -0.161892
C        0.031583       -0.622832       -0.005195
H       -0.967934       -1.110395        0.036460
H        0.782186       -1.463204       -0.054548
6
  Step 6: 6.0 fs
C       -0.002729        0.644686        0.027752
H        0.891805        1.215212       -0.057926
H       -1.063275        1.130328       -0.183136
C        0.035031       -0.622090       -0.005722
H       -1.017424       -1.107639        0.039818
H        0.804302       -1.506978       -0.061072
6
  Step 7: 7.0 fs
C        0.002334        0.651594        0.029510
H        0.852233        1.209520       -0.060916
H       -1.086209        1.134202       -0.194508
C        0.036779       -0.627732       -0.006051
H       -1.051339       -1.101502        0.040587
H        0.819631       -1.526383       -0.064478
6
  Step 8: 8.0 fs
C        0.004295        0.660472        0.030086
H        0.833994        1.224563       -0.063832
H       -1.081770        1.132048       -0.195043
C        0.036582       -0.639172       -0.006172
H       -1.063673       -1.091128        0.038649
H        0.824757       -1.519141       -0.064510
6
  Step 9: 9.0 fs
C        0.002709        0.669761        0.029511
H        0.842869        1.263426       -0.067206
H       -1.050953        1.124291       -0.184834
C        0.034378       -0.654890       -0.006069
H       -1.053139       -1.077563        0.034128
H        0.819666       -1.487273       -0.061199
6
  Step 10: 10.0 fs
C       -0.001152        0.678615        0.027779
H        0.868831        1.317461       -0.069859
H       -1.000143        1.113399       -0.165143
C        0.030223       -0.672741       -0.005728
H       -1.023096       -1.063487        0.027345
H        0.808294       -1.437376       -0.054892
6
  Step 11: 11.0 fs
C       -0.004930        0.686434        0.024986
H        0.896200        1.373131       -0.070053
H       -0.943437        1.104957       -0.138798
C        0.024252       -0.690093       -0.005137
H       -0.982658       -1.053419        0.018830
H        0.799866       -1.381171       -0.046309
6
  Step 12: 12.0 fs
C       -0.005941        0.692320        0.021411
H        0.913291        1.419316       -0.066699
H       -0.903142        1.108210       -0.109942
C        0.016778       -0.704120       -0.004295
H       -0.947245       -1.053732        0.009240
H        0.808093       -1.333364       -0.036391
6
  Step 13: 13.0 fs
C       -0.002230        0.695373        0.017326
H        0.914320        1.449091       -0.059527
H       -0.899197        1.131710       -0.081652
C        0.008659       -0.712696       -0.003234
H       -0.934360       -1.071178       -0.000862
H        0.842726       -1.303444       -0.025751
6
  Step 14: 14.0 fs
C        0.005849        0.695552        0.012781
H        0.898468        1.459203       -0.048845
H       -0.929449        1.173872       -0.053557
C        0.001176       -0.715344       -0.002019
H       -0.951266       -1.108664       -0.011221
H        0.898640       -1.288837       -0.014516
6
  Step 15: 15.0 fs
C        0.015991        0.693646        0.007772
H        0.868883        1.449614       -0.035356
H       -0.972651        1.223133       -0.024209
C       -0.004962       -0.713045       -0.000722
H       -0.987051       -1.161580       -0.021591
H        0.959541       -1.280282       -0.002794
6
  Step 16: 16.0 fs
C        0.025658        0.690348        0.002453
H        0.832753        1.424117       -0.020004
H       -1.008609        1.267551        0.006234
C       -0.009796       -0.707265        0.000583
H       -1.022642       -1.220389       -0.031396
H        1.009677       -1.269947        0.009019
6
  Step 17: 17.0 fs
C        0.032716        0.685763       -0.002920
H        0.801643        1.391131       -0.003753
H       -1.025844        1.299450        0.036342
C       -0.013563       -0.699311        0.001826
H       -1.042901       -1.275634       -0.039916
H        1.039107       -1.253737        0.020348
6
  Step 18: 18.0 fs
C        0.035431        0.679573       -0.008091
H        0.789767        1.362275        0.012839
H       -1.019768        1.314976        0.064285
C       -0.016428       -0.690207        0.002949
H       -1.039744       -1.320243       -0.046526
H        1.043546       -1.230492        0.030627
6
  Step 19: 19.0 fs
C        0.032874        0.671755       -0.012865
H        0.806649        1.345388        0.029775
H       -0.990164        1.312939        0.088302
C       -0.018491       -0.680791        0.003907
H       -1.010908       -1.349791       -0.050805
H        1.023220       -1.201067        0.039394
6
  Step 20: 20.0 fs
C        0.025538        0.663232       -0.017056
H        0.849001        1.337216        0.046856
H       -0.940432        1.294550        0.106939
C       -0.019887       -0.671739        0.004660
H       -0.958661       -1.362429       -0.052555
H        0.982876       -1.168155        0.046367
6
  Step 21: 21.0 fs
C        0.015183        0.655397       -0.020469
H        0.903578        1.327189        0.063005
H       -0.878759        1.264506        0.119434
C       -0.020882       -0.663431        0.005174
H       -0.889927       -1.359460       -0.051864
H        0.933036       -1.136689        0.051542
6
  Step 22: 22.0 fs
C        0.004288        0.649073       -0.023008
H        0.956308        1.306127        0.076737
H       -0.820674        1.233252        0.126534
C       -0.021812       -0.655684        0.005422
H       -0.817425       -1.346887       -0.049213
H        0.890522       -1.113911        0.055340
6
  Step 23: 23.0 fs
C       -0.004367        0.644096       -0.024779
H        0.996996        1.269750        0.086825
H       -0.788586        1.217325        0.131107
C       -0.022714       -0.647762        0.005393
H       -0.759545       -1.336499       -0.045593
H        0.873663       -1.107061        0.058489
6
  Step 24: 24.0 fs
C       -0.008838        0.640177       -0.025939
H        1.019799        1.218139        0.092511
H       -0.798514        1.229828        0.136022
C       -0.022837       -0.639207        0.005129
H       -0.734021       -1.341860       -0.042081
H        0.889959       -1.117794        0.061326
6
  Step 25: 25.0 fs
C       -0.009450        0.638237       -0.026362
H        1.022804        1.154658        0.093548
H       -0.842470        1.266314        0.140073
C       -0.021202       -0.631096        0.004696
H       -0.745086       -1.366473       -0.038960
H        0.929801       -1.139669        0.063316
6
  Step 26: 26.0 fs
C       -0.008073        0.639838       -0.025769
H        1.008419        1.085554        0.090260
H       -0.897522        1.310508        0.139462
C       -0.017649       -0.625859        0.004127
H       -0.780689       -1.399408       -0.035628
H        0.976138       -1.163250        0.063587
6
  Step 27: 27.0 fs
C       -0.006715        0.645684       -0.024051
H        0.984845        1.019871        0.083721
H       -0.944345        1.348562        0.131659
C       -0.012685       -0.625635        0.003435
H       -0.824201       -1.426070       -0.031461
H        1.014772       -1.181233        0.061548
6
  Step 28: 28.0 fs
C       -0.007222        0.655195       -0.021320
H        0.966515        0.968258        0.075716
H       -0.971726        1.372822        0.116106
C       -0.006959       -0.631244        0.002628
H       -0.862938       -1.436770       -0.026252
H        1.037090       -1.189648        0.057003
6
  Step 29: 29.0 fs
C       -0.011007        0.666976       -0.017789
H        0.968470        0.939447        0.067932
H       -0.974647        1.380314        0.093518
C       -0.001071       -0.642194        0.001714
H       -0.889366       -1.427600       -0.020136
H        1.039440       -1.187401        0.050094
6
  Step 30: 30.0 fs
C       -0.018184        0.679497       -0.013632
H        0.994349        0.936260        0.060768
H       -0.952885        1.371433        0.065335
C        0.004450       -0.657073        0.000711
H       -0.900208       -1.399060       -0.013423
H        1.022370       -1.175796        0.041182
6
  Step 31: 31.0 fs
C       -0.027194        0.691330       -0.008977
H        1.032470        0.955683        0.053373
H       -0.911609        1.350189        0.033473
C        0.009060       -0.673884       -0.000361
H       -0.896038       -1.355121       -0.006513
H        0.991195       -1.158658        0.030852
6
  Step 32: 32.0 fs
C       -0.035470        0.700912       -0.003977
H        1.066118        0.992222        0.044854
H       -0.863574        1.325833       -0.000008
C        0.012179       -0.690213       -0.001471
H       -0.882039       -1.303159        0.000160
H        0.956915       -1.142470        0.019870
6
  Step 33: 33.0 fs
C       -0.040174        0.706467        0.001213
H        1.082700        1.040169        0.034926
H       -0.829295        1.313131       -0.033804
C        0.013338       -0.703475       -0.002588
H       -0.868812       -1.253629        0.006232
H        0.935039       -1.135486        0.009032
6
  Step 34: 34.0 fs
C       -0.039252        0.706695        0.006524
H        1.075792        1.094287        0.023828
H       -0.826601        1.324647       -0.068196
C        0.012671       -0.711528       -0.003670
H       -0.870203       -1.217626        0.011514
H        0.937613       -1.143958       -0.001122
6
  Step 35: 35.0 fs
C       -0.032871        0.701940        0.011845
H        1.044484        1.150035        0.012140
H       -0.853006        1.356967       -0.103251
C        0.011092       -0.713544       -0.004664
H       -0.894821       -1.201456        0.015947
H        0.962769       -1.167583       -0.010331
6
  Step 36: 36.0 fs
C       -0.022979        0.693866        0.016853
H        0.992580        1.203920        0.000610
H       -0.890196        1.393606       -0.136575
C        0.009446       -0.710230       -0.005517
H       -0.937541       -1.202756        0.019308
H        0.996409       -1.200140       -0.018310
6
  Step 37: 37.0 fs
C       -0.011780        0.684125        0.021152
H        0.928233        1.254245       -0.010000
H       -0.921823        1.419210       -0.164715
C        0.007943       -0.703103       -0.006184
H       -0.983716       -1.213671        0.021154
H        1.023110       -1.234034       -0.024655
6
  Step 38: 38.0 fs
C       -0.001130        0.673819        0.024439
H        0.862838        1.301740       -0.019135
H       -0.939371        1.424798       -0.184937
C        0.006451       -0.693749       -0.006634
H       -1.019235       -1.226192        0.021065
H        1.032534       -1.263271       -0.028975
6
  Step 39: 39.0 fs
C        0.007571        0.663652        0.026534
H        0.808042        1.348871       -0.026471
H       -0.940376        1.406542       -0.195620
C        0.004842       -0.683560       -0.006858
H       -1.035286       -1.234540        0.018807
H        1.019950       -1.284062       -0.030981
6
  Step 40: 40.0 fs
C        0.013616        0.654320        0.027353
H        0.770973        1.396646       -0.031699
H       -0.926187        1.364053       -0.196117
C        0.003062       -0.673703       -0.006859
H       -1.028499       -1.235384        0.014318
H        0.985264       -1.294761       -0.030514
6
  Step 41: 41.0 fs
C        0.017108        0.646736        0.026885
H        0.752239        1.441770       -0.034331
H       -0.901222        1.299951       -0.186734
C        0.001094       -0.665077       -0.006650
H       -1.000225       -1.227586        0.007672
H        0.932602       -1.295989       -0.027537
6
  Step 42: 42.0 fs
C        0.018841        0.641771        0.025217
H        0.748156        1.477800       -0.033764
H       -0.873776        1.220721       -0.168991
C       -0.001072       -0.658150       -0.006247
H       -0.956700       -1.212392       -0.000949
H        0.870885       -1.291359       -0.022160
6
  Step 43: 43.0 fs
C        0.020194        0.639731        0.022594
H        0.753882        1.498674       -0.029669
H       -0.858040        1.137932       -0.146033
C       -0.003386       -0.652732       -0.005661
H       -0.909788       -1.193963       -0.011306
H        0.813954       -1.288082       -0.014600
6
  Step 44: 44.0 fs
C        0.022865        0.640288        0.019374
H        0.764800        1.500835       -0.022160
H       -0.872212        1.065865       -0.121862
C       -0.005528       -0.648030       -0.004899
H       -0.876292       -1.179381       -0.023243
H        0.777412       -1.295390       -0.005086
6
  Step 45: 45.0 fs
C        0.027663        0.643196        0.015783
H        0.777202        1.483833       -0.011720
H       -0.924602        1.012637       -0.098436
C       -0.006763       -0.643428       -0.003965
H       -0.871417       -1.175462       -0.036790
H        0.770105       -1.318506        0.006238
6
  Step 46: 46.0 fs
C        0.033403        0.648608        0.011822
H        0.789371        1.450681        0.000967
H       -1.001124        0.976247       -0.074694
C       -0.006381       -0.639489       -0.002883
H       -0.897632       -1.182714       -0.051810
H        0.787775       -1.353057        0.019107
6
  Step 47: 47.0 fs
C        0.037908        0.656346        0.007501
H        0.802602        1.407965        0.015220
H       -1.077699        0.952237       -0.049575
C       -0.004333       -0.637676       -0.001711
H       -0.942596       -1.194317       -0.067465
H        0.818071       -1.388452        0.032890
6
  Step 48: 48.0 fs
C        0.039316        0.665500        0.002936
H        0.821196        1.364828        0.030588
H       -1.135864        0.938563       -0.023432
C       -0.001071       -0.639193       -0.000539
H       -0.989422       -1.202140       -0.082381
H        0.848873       -1.414766        0.046698
6
  Step 49: 49.0 fs
C        0.036513        0.674826       -0.001716
H        0.849759        1.329403        0.046988
H       -1.165516        0.934964        0.002573
C        0.002873       -0.644392        0.000544
H       -1.024972       -1.201151       -0.095240
H        0.871926       -1.425880        0.059649
6
  Step 50: 50.0 fs
C        0.029306        0.683314       -0.006280
H        0.888449        1.304676        0.064390
H       -1.162547        0.941715        0.027092
C        0.007048       -0.652859        0.001457
H       -1.041609       -1.189776       -0.105072
H        0.883011       -1.419528        0.071018
6
  Step 51: 51.0 fs
C        0.018486        0.690398       -0.010539
H        0.930776        1.287843        0.082271
H       -1.127592        0.959178        0.048851
C        0.011086       -0.663644        0.002135
H       -1.036640       -1.169113       -0.111354
H        0.881504       -1.396756        0.080315
6
  Step 52: 52.0 fs
C        0.005626        0.695701       -0.014258
H        0.966856        1.273884        0.099562
H       -1.066774        0.987995        0.066858
C        0.014639       -0.675371        0.002518
H       -1.011832       -1.142371       -0.114008
H        0.870627       -1.361873        0.087381
6
  Step 53: 53.0 fs
C       -0.007100        0.698724       -0.017247
H        0.988289        1.258911        0.115000
H       -0.994361        1.030082        0.080874
C        0.017368       -0.686287        0.002559
H       -0.974011       -1.114912       -0.113529
H        0.857995       -1.322474        0.092552
6
  Step 54: 54.0 fs
C       -0.017053        0.698700       -0.019449
H        0.990474        1.241030        0.127480
H       -0.933359        1.090030        0.091996
C        0.019049       -0.694412        0.002231
H       -0.935588       -1.094224       -0.111134
H        0.854884       -1.288209        0.096679
6
  Step 55: 55.0 fs
C       -0.022228        0.694862       -0.020901
H        0.973499        1.220164        0.136324
H       -0.903686        1.172903        0.101884
C        0.019858       -0.698068        0.001561
H       -0.912310       -1.088752       -0.108586
H        0.870896       -1.266460        0.100667
6
  Step 56: 56.0 fs
C       -0.023021        0.687357       -0.021514
H        0.942376        1.197898        0.141478
H       -0.902125        1.274419        0.109830
C        0.020337       -0.696671        0.000627
H       -0.914446       -1.104188       -0.107163
H        0.906326       -1.257550        0.104560
6
  Step 57: 57.0 fs
C       -0.021687        0.677453       -0.021093
H        0.906709        1.177579        0.143683
H       -0.908996        1.378710        0.112821
C        0.020726       -0.691047       -0.000517
H       -0.937497       -1.139351       -0.106555
H        0.951402       -1.255403        0.107370
6
  Step 58: 58.0 fs
C       -0.020500        0.666614       -0.019578
H        0.879004        1.164024        0.144439
H       -0.908549        1.469159        0.108491
C        0.020710       -0.682901       -0.001874
H       -0.966176       -1.186984       -0.105364
H        0.993399       -1.252600        0.107871
6
  Step 59: 59.0 fs
C       -0.020907        0.656094       -0.017056
H        0.869783        1.161256        0.145216
H       -0.893960        1.534681        0.096128
C        0.019839       -0.674095       -0.003454
H       -0.985458       -1.238134       -0.102388
H        1.022542       -1.243814        0.105273
6
  Step 60: 60.0 fs
C       -0.023273        0.647182       -0.013623
H        0.881522        1.169053        0.146280
H       -0.864112        1.569344        0.076153
C        0.017842       -0.666249       -0.005243
H       -0.986029       -1.285280       -0.097131
H        1.033474       -1.226445        0.099337
6
  Step 61: 61.0 fs
C       -0.027005        0.641276       -0.009314
H        0.907759        1.182124        0.146513
H       -0.821030        1.570908        0.049615
C        0.014638       -0.660576       -0.007207
H       -0.964360       -1.323239       -0.089713
H        1.025076       -1.200349        0.090321
6
  Step 62: 62.0 fs
C       -0.031061        0.639473       -0.004184
H        0.938586        1.193267        0.144507
H       -0.769138        1.540625        0.017972
C        0.010224       -0.657731       -0.009313
H       -0.921544       -1.349250       -0.080688
H        1.000391       -1.167616        0.078925
6
  Step 63: 63.0 fs
C       -0.034267        0.641954        0.001636
H        0.965801        1.196799        0.139497
H       -0.716463        1.485219       -0.017072
C        0.004600       -0.657617       -0.011523
H       -0.862979       -1.363376       -0.070959
H        0.967081       -1.132516        0.066281
6
  Step 64: 64.0 fs
C       -0.035184        0.647500        0.007969
H        0.984271        1.189734        0.131478
H       -0.677421        1.420899       -0.054203
C       -0.002203       -0.659274       -0.013795
H       -0.798955       -1.369661       -0.061771
H        0.937466       -1.101152        0.053880
6
  Step 65: 65.0 fs
C       -0.032029        0.653605        0.014736
H        0.991556        1.171752        0.121028
H       -0.673250        1.373574       -0.094025
C       -0.009874       -0.661095       -0.016055
H       -0.744337       -1.376955       -0.054528
H        0.925157       -1.079567        0.043241
6
  Step 66: 66.0 fs
C       -0.023884        0.658321        0.021945
H        0.987709        1.144975        0.109072
H       -0.717578        1.360133       -0.138722
C       -0.017521       -0.661586       -0.018183
H       -0.714049       -1.396230       -0.050433
H        0.937125       -1.070377        0.035305
6
  Step 67: 67.0 fs
C       -0.012421        0.662130        0.029231
H        0.976125        1.113950        0.096733
H       -0.796570        1.368310       -0.186218
C       -0.024013       -0.660422       -0.020050
H       -0.713696       -1.431700       -0.049970
H        0.968165       -1.071296        0.030155
6
  Step 68: 68.0 fs
C       -0.000777        0.666241        0.035857
H        0.964405        1.085486        0.085150
H       -0.882732        1.376365       -0.229819
C       -0.028713       -0.658633       -0.021567
H       -0.735835       -1.475173       -0.052832
H        1.005514       -1.077668        0.027372
6
  Step 69: 69.0 fs
C        0.008311        0.670964        0.041193
H        0.962841        1.067179        0.075177
H       -0.955394        1.372019       -0.263582
C       -0.031509       -0.657638       -0.022690
H       -0.767669       -1.512859       -0.058320
H        1.036660       -1.085406        0.026430
6
  Step 70: 70.0 fs
C        0.013241        0.675999        0.044880
H        0.978144        1.064115        0.067092
H       -1.003367        1.351584       -0.284111
C       -0.032484       -0.658389       -0.023396
H       -0.798586       -1.533713       -0.065692
H        1.053154       -1.092082        0.026917
6
  Step 71: 71.0 fs
C        0.013776        0.681036        0.046772
H        1.007118        1.076203        0.060707
H       -1.021630        1.315648       -0.289925
C       -0.031756       -0.661187       -0.023678
H       -0.822102       -1.531816       -0.074296
H        1.050925       -1.096790        0.028563
6
  Step 72: 72.0 fs
C        0.010699        0.685866        0.046839
H        1.038486        1.099187        0.055779
H       -1.009226        1.267031       -0.280856
C       -0.029471       -0.665783       -0.023535
H       -0.835444       -1.505812       -0.083627
H        1.029918       -1.099947        0.031256
6
  Step 73: 73.0 fs
C        0.005252        0.690156        0.045167
H        1.060007        1.127685        0.052234
H       -0.969550        1.210760       -0.258177
C       -0.025852       -0.671456       -0.022971
H       -0.839161       -1.458172       -0.093383
H        0.994219       -1.103345        0.035062
6
  Step 74: 74.0 fs
C       -0.000982        0.693200        0.042044
H        1.063234        1.157237        0.050127
H       -0.913498        1.155424       -0.225523
C       -0.021226       -0.677031       -0.021995
H       -0.837576       -1.395202       -0.103577
H        0.952500       -1.110413        0.040275
6
  Step 75: 75.0 fs
C       -0.005669        0.693771        0.038072
H        1.044311        1.184827        0.049587
H       -0.864644        1.115059       -0.190109
C       -0.015968       -0.680965       -0.020620
H       -0.839117       -1.326611       -0.114717
H        0.917311       -1.126197        0.047460
6
  Step 76: 76.0 fs
C       -0.006025        0.690423        0.034009
H        1.004028        1.209102        0.050812
H       -0.855451        1.106147       -0.160615
C       -0.010261       -0.681775       -0.018858
H       -0.854533       -1.263063       -0.127731
H        0.900103       -1.155596        0.057152
6
  Step 77: 77.0 fs
C       -0.001425        0.682817        0.030072
H        0.948278        1.230791        0.054088
H       -0.896751        1.132600       -0.138923
C       -0.003996       -0.678893       -0.016737
H       -0.890076       -1.210860       -0.143176
H        0.903337       -1.199700        0.069250
6
  Step 78: 78.0 fs
C        0.005302        0.672304        0.025863
H        0.888106        1.253364        0.059828
H       -0.962784        1.178959       -0.119434
C        0.002883       -0.673160       -0.014341
H       -0.940934       -1.168970       -0.160184
H        0.918404       -1.253614        0.082621
6
  Step 79: 79.0 fs
C        0.010810        0.660546        0.021107
H        0.837030        1.282700        0.068557
H       -1.023981        1.226683       -0.098052
C        0.010080       -0.666276       -0.011828
H       -0.994148       -1.132669       -0.176562
H        0.932619       -1.308943        0.095592
6
  Step 80: 80.0 fs
C        0.013234        0.648976        0.015826
H        0.804011        1.323069        0.080720
H       -1.064130        1.263734       -0.074188
C        0.017092       -0.660008       -0.009377
H       -1.036761       -1.098327       -0.189956
H        0.936042       -1.357580        0.106656
6
  Step 81: 81.0 fs
C        0.012340        0.639208        0.010225
H        0.788169        1.371845        0.096106
H       -1.077110        1.283691       -0.048966
C        0.023437       -0.655795       -0.007136
H       -1.060228       -1.064805       -0.198699
H        0.923443       -1.393703        0.114801
6
  Step 82: 82.0 fs
C        0.008839        0.633024        0.004618
H        0.782087        1.420026        0.113549
H       -1.062159        1.283535       -0.024057
C        0.028738       -0.654586       -0.005210
H       -1.061022       -1.032976       -0.201957
H        0.893927       -1.414338        0.119533
6
  Step 83: 83.0 fs
C        0.003667        0.631777       -0.000645
H        0.778531        1.457806        0.131376
H       -1.021820        1.262593       -0.001277
C        0.032718       -0.656653       -0.003662
H       -1.040139       -1.005052       -0.199700
H        0.850464       -1.419639        0.120907
6
  Step 84: 84.0 fs
C       -0.002196        0.635835       -0.005235
H        0.773558        1.478565        0.148014
H       -0.962840        1.223192        0.017570
C        0.035170       -0.661395       -0.002530
H       -1.003253       -0.984249       -0.192765
H        0.800184       -1.413653        0.119654
6
  Step 85: 85.0 fs
C       -0.007386        0.644329       -0.008894
H        0.766254        1.479585        0.162272
H       -0.899806        1.172959        0.031041
C        0.035990       -0.667299       -0.001823
H       -0.961291       -0.974589       -0.182947
H        0.754528       -1.404950        0.117254
6
  Step 86: 86.0 fs
C       -0.009730        0.655120       -0.011508
H        0.757959        1.461847        0.173480
H       -0.859616        1.127379        0.038833
C        0.035298       -0.672287       -0.001519
H       -0.929566       -0.980415       -0.172867
H        0.727064       -1.404907        0.115677
6
  Step 87: 87.0 fs
C       -0.006961        0.665592       -0.013150
H        0.751835        1.429734        0.181646
H       -0.872817        1.103789        0.042065
C        0.033531       -0.674715       -0.001554
H       -0.921574       -1.004706       -0.164855
H        0.726463       -1.420698        0.116242
6
  Step 88: 88.0 fs
C        0.000415        0.674412       -0.013924
H        0.753017        1.390894        0.187662
H       -0.939843        1.103112        0.041099
C        0.031188       -0.674410       -0.001857
H       -0.939102       -1.046337       -0.159311
H        0.749918       -1.448213        0.118475
6
  Step 89: 89.0 fs
C        0.008932        0.681466       -0.013908
H        0.768166        1.355179        0.193338
H       -1.028028        1.112002        0.034923
C        0.028380       -0.672487       -0.002410
H       -0.970541       -1.099164       -0.154623
H        0.786409       -1.475449        0.120678
6
  Step 90: 90.0 fs
C        0.015454        0.686672       -0.013246
H        0.801751        1.330272        0.200295
H       -1.106388        1.120278        0.023340
C        0.024926       -0.670329       -0.003216
H       -1.000348       -1.154786       -0.148849
H        0.824467       -1.490881        0.121245
6
  Step 91: 91.0 fs
C        0.018621        0.690092       -0.012018
H        0.850976        1.316855        0.208294
H       -1.157596        1.123964        0.007200
C        0.020673       -0.668943       -0.004263
H       -1.016967       -1.205737       -0.140851
H        0.856015       -1.487423        0.119238
6
  Step 92: 92.0 fs
C        0.018502        0.692102       -0.010178
H        0.905766        1.309415        0.215108
H       -1.173963        1.122312       -0.012236
C        0.015622       -0.668847       -0.005514
H       -1.014461       -1.246755       -0.130379
H        0.876648       -1.462400        0.114369
6
  Step 93: 93.0 fs
C        0.015777        0.693094       -0.007658
H        0.954230        1.301260        0.218089