6
  Step 0: 0.0 fs
C       -0.000002        0.665094       -0.000001
H        0.925309        1.240805        0.000004
H       -0.925294        1.240825        0.000003
C        0.000001       -0.665092       -0.000000
H       -0.925307       -1.240835        0.000001
H        0.925304       -1.240817        0.000001
6
  Step 1: 1.0 fs
C       -0.009170        0.649952        0.001730
H        0.963575        1.263835        0.019598
H       -0.894604        1.253269       -0.016271
C        0.001278       -0.653299       -0.006932
H       -0.949463       -1.218121        0.047237
H        0.974460       -1.259127        0.011368
6
  Step 2: 2.0 fs
C       -0.016485        0.636832        0.003415
H        0.988381        1.277568        0.038211
H       -0.870310        1.267709       -0.031905
C        0.003107       -0.643664       -0.013569
H       -0.967955       -1.194664        0.092396
H        1.009183       -1.269259        0.022189
6
  Step 3: 3.0 fs
C       -0.020938        0.627440        0.005037
H        0.993560        1.277379        0.054778
H       -0.856320        1.284984       -0.046358
C        0.005617       -0.637906       -0.019603
H       -0.976797       -1.170567        0.133208
H        1.022003       -1.267164        0.031805
6
  Step 4: 4.0 fs
C       -0.022273        0.623055        0.006573
H        0.978002        1.262124        0.068383
H       -0.852866        1.303608       -0.059066
C        0.008703       -0.637048       -0.024763
H       -0.974399       -1.147014        0.167598
H        1.010868       -1.252087        0.039675
6
  Step 5: 5.0 fs
C       -0.020812        0.624271        0.007971
H        0.944660        1.233612        0.078390
H       -0.857457        1.320145       -0.069366
C        0.012093       -0.641176       -0.028849
H       -0.961820       -1.126241        0.194055
H        0.978468       -1.226212        0.045509
6
  Step 6: 6.0 fs
C       -0.017382        0.630698        0.009138
H        0.901425        1.197195        0.084621
H       -0.866674        1.330802       -0.076581
C        0.015240       -0.649289       -0.031767
H       -0.942656       -1.111309        0.211878
H        0.933449       -1.195308        0.049515
6
  Step 7: 7.0 fs
C       -0.013391        0.640857        0.009922
H        0.863181        1.162914        0.087687
H       -0.877484        1.332912       -0.080188
C        0.017152       -0.659388       -0.033564
H       -0.922537       -1.105639        0.221294
H        0.892106       -1.169514        0.052707
6
  Step 8: 8.0 fs
C       -0.010685        0.652536        0.010129
H        0.850298        1.144055        0.089023
H       -0.887779        1.325636       -0.079946
C        0.016566       -0.669010       -0.034415
H       -0.907873       -1.112315        0.223254
H        0.875390       -1.161196        0.056835
6
  Step 9: 9.0 fs
C       -0.010432        0.663812        0.009643
H        0.875408        1.148772        0.089740
H       -0.896702        1.310103       -0.075945
C        0.013006       -0.676369       -0.034466
H       -0.903469       -1.133025        0.218819
H        0.894172       -1.176292        0.062942
6
  Step 10: 10.0 fs
C       -0.011877        0.673881        0.008549
H        0.928979        1.172364        0.089177
H       -0.904925        1.289217       -0.068601
C        0.007563       -0.681139       -0.033650
H       -0.910140       -1.167073        0.208426
H        0.937515       -1.208039        0.069858
6
  Step 11: 11.0 fs
C       -0.013147        0.682604        0.007055
H        0.988688        1.203345        0.085785
H       -0.914372        1.266971       -0.058557
C        0.001829       -0.683898       -0.031763
H       -0.923890       -1.210864        0.191649
H        0.984407       -1.243994        0.075319
6
  Step 12: 12.0 fs
C       -0.012707        0.689842        0.005341
H        1.035819        1.232221        0.078619
H       -0.926982        1.247178       -0.046514
C       -0.003190       -0.685342       -0.028647
H       -0.937902       -1.258676        0.167768
H        1.018437       -1.274253        0.077626
6
  Step 13: 13.0 fs
C       -0.009847        0.695393        0.003521
H        1.059677        1.253459        0.067587
H       -0.943068        1.232168       -0.033065
C       -0.007099       -0.686003       -0.024275
H       -0.945609       -1.304251        0.136586
H        1.030862       -1.293113        0.075999
6
  Step 14: 14.0 fs
C       -0.004606        0.699117        0.001656
H        1.055969        1.264488        0.053170
H       -0.960371        1.222217       -0.018673
C       -0.009799       -0.686218       -0.018758
H       -0.942727       -1.342185        0.098801
H        1.018748       -1.298043        0.070332
6
  Step 15: 15.0 fs
C        0.002416        0.700948       -0.000215
H        1.025332        1.264953        0.036206
H       -0.974730        1.216087       -0.003823
C       -0.011348       -0.686106       -0.012324
H       -0.927886       -1.368671        0.055906
H        0.983733       -1.289017        0.061016
6
  Step 16: 16.0 fs
C        0.010202        0.700770       -0.002061
H        0.973531        1.256943        0.017762
H       -0.981876        1.212066        0.010865
C       -0.011972       -0.685519       -0.005280
H       -0.902691       -1.381838        0.009918
H        0.932231       -1.268686        0.048859
6
  Step 17: 17.0 fs
C        0.017296        0.698240       -0.003842
H        0.913229        1.246272       -0.000989
H       -0.979030        1.208749        0.024650
C       -0.012216       -0.683918        0.002015
H       -0.871603       -1.381996       -0.036972
H        0.877039       -1.243475        0.035065
6
  Step 18: 18.0 fs
C        0.021873        0.692707       -0.005498
H        0.864207        1.243223       -0.019130
H       -0.965815        1.205439        0.036777
C       -0.012982       -0.680364        0.009216
H       -0.841478       -1.371674       -0.082786
H        0.837344       -1.223875        0.020873
6
  Step 19: 19.0 fs
C        0.022462        0.683617       -0.006925
H        0.845235        1.258263       -0.036345
H       -0.944673        1.202364        0.046604
C       -0.014998       -0.673995        0.016074
H       -0.820262       -1.355084       -0.126139
H        0.830974       -1.220021        0.006942
6
  Step 20: 20.0 fs
C        0.019276        0.671487       -0.008032
H        0.858203        1.291422       -0.052439
H       -0.920683        1.200786        0.053708
C       -0.017812       -0.665035        0.022442
H       -0.814267       -1.336444       -0.166215
H        0.859462       -1.232494       -0.006632
6
  Step 21: 21.0 fs
C        0.014144        0.658113       -0.008824
H        0.887883        1.330550       -0.066483
H       -0.900272        1.202752        0.057909
C       -0.019961       -0.655070        0.028145
H       -0.825212       -1.317773       -0.202120
H        0.907011       -1.251668       -0.019361
6
  Step 22: 22.0 fs
C        0.008995        0.645676       -0.009367
H        0.917450        1.361897       -0.077155
H       -0.888742        1.210032        0.059140
C       -0.020251       -0.646252        0.032920
H       -0.849446       -1.298147       -0.232177
H        0.954919       -1.266822       -0.030252
6
  Step 23: 23.0 fs
C        0.004982        0.636129       -0.009723
H        0.936325        1.376600       -0.083418
H       -0.887846        1.222662        0.057273
C       -0.018274       -0.640552        0.036477
H       -0.880182       -1.275165       -0.254062
H        0.990139       -1.271322       -0.038354
6
  Step 24: 24.0 fs
C        0.002462        0.630971       -0.009913
H        0.939742        1.370823       -0.084712
H       -0.895404        1.238335        0.052080
C       -0.014167       -0.639315        0.038577
H       -0.910541       -1.247063       -0.265611
H        1.005755       -1.262641       -0.043062
6
  Step 25: 25.0 fs
C        0.001273        0.630996       -0.009932
H        0.927074        1.344560       -0.080910
H       -0.907047        1.253321        0.043392
C       -0.008329       -0.642979        0.039087
H       -0.935384       -1.213796       -0.265508
H        0.999549       -1.241296       -0.044124
6
  Step 26: 26.0 fs
C        0.000941        0.636048       -0.009750
H        0.901546        1.301407       -0.072299
H       -0.918422        1.264053        0.031284
C       -0.001352       -0.650960        0.037991
H       -0.951892       -1.177142       -0.253557
H        0.973850       -1.210642       -0.041697
6
  Step 27: 27.0 fs
C        0.000666        0.644919       -0.009316
H        0.871748        1.249505       -0.059653
H       -0.926478        1.268270        0.016138
C        0.005856       -0.661693        0.035407
H       -0.959708       -1.140441       -0.230686
H        0.936972       -1.177484       -0.036475
6
  Step 28: 28.0 fs
C       -0.000742        0.655546       -0.008568
H        0.852841        1.201774       -0.044164
H       -0.929859        1.265487       -0.001414
C        0.011938       -0.672891        0.031585
H       -0.960885       -1.108086       -0.198769
H        0.904788       -1.152522       -0.029720
6
  Step 29: 29.0 fs
C       -0.004465        0.665673       -0.007490
H        0.861848        1.171595       -0.026914
H       -0.929015        1.257038       -0.020599
C        0.015397       -0.682141        0.026854
H       -0.959523       -1.084872       -0.160300
H        0.896727       -1.147552       -0.022758
6
  Step 30: 30.0 fs
C       -0.010447        0.673880       -0.006155
H        0.902852        1.163142       -0.008247
H       -0.926287        1.245887       -0.040639
C        0.015794       -0.687871        0.021486
H       -0.960694       -1.075112       -0.117830
H        0.920679       -1.167192       -0.015845
6
  Step 31: 31.0 fs
C       -0.016938        0.679842       -0.004668
H        0.960730        1.169486        0.011618
H       -0.925460        1.236007       -0.060883
C        0.014345       -0.689886        0.015645
H       -0.967953       -1.081420       -0.073308
H        0.963787       -1.204341       -0.008143
6
  Step 32: 32.0 fs
C       -0.021832        0.683672       -0.003086
H        1.014948        1.181315        0.031832
H       -0.929960        1.230948       -0.080829
C        0.012619       -0.688841        0.009458
H       -0.980575       -1.103569       -0.027904
H        1.005507       -1.247003        0.001018
6
  Step 33: 33.0 fs
C       -0.023828        0.685563       -0.001441
H        1.050881        1.192311        0.051123
H       -0.940427        1.232176       -0.099944
C        0.011414       -0.685634        0.003103
H       -0.993199       -1.138258        0.017382
H        1.030789       -1.285236        0.011643
6
  Step 34: 34.0 fs
C       -0.022615        0.685821        0.000211
H        1.061227        1.199235        0.068254
H       -0.953774        1.238463       -0.117402
C        0.010792       -0.681183       -0.003168
H       -0.998674       -1.180110        0.061071
H        1.032234       -1.312656        0.023280
6
  Step 35: 35.0 fs
C       -0.018577        0.684858        0.001779
H        1.044181        1.200899        0.082224
H       -0.964659        1.246798       -0.132046
C        0.010494       -0.676325       -0.009055
H       -0.991360       -1.223283        0.101157
H        1.008331       -1.325857        0.035299
6
  Step 36: 36.0 fs
C       -0.012497        0.683050        0.003148
H        1.002751        1.197925        0.092409
H       -0.968083        1.253952       -0.142690
C        0.010156       -0.671728       -0.014255
H       -0.968721       -1.262523        0.135443
H        0.962189       -1.324008        0.047069
6
  Step 37: 37.0 fs
C       -0.005477        0.680570        0.004193
H        0.945554        1.193311        0.098769
H       -0.961095        1.257515       -0.148412
C        0.009326       -0.667754       -0.018511
H       -0.931856       -1.293925        0.161960
H        0.901831       -1.309329        0.058160
6
  Step 38: 38.0 fs
C        0.001020        0.677213        0.004758
H        0.888089        1.193473        0.102159
H       -0.943557        1.256400       -0.148777
C        0.007363       -0.664274       -0.021674
H       -0.885481       -1.315440        0.179356
H        0.841414       -1.288317        0.068666
6
  Step 39: 39.0 fs
C        0.005401        0.672442        0.004683
H        0.850204        1.207508        0.104285
H       -0.918427        1.251069       -0.143972
C        0.003487       -0.660629       -0.023751
H       -0.837614       -1.327393        0.187202
H        0.800289       -1.271663        0.079517
6
  Step 40: 40.0 fs
C        0.006930        0.665966        0.003902
H        0.844237        1.240817        0.106439
H       -0.891573        1.243609       -0.134819
C       -0.002606       -0.656134       -0.024872
H       -0.798483       -1.332696        0.186142
H        0.794627       -1.268625        0.091921
6
  Step 41: 41.0 fs
C        0.006549        0.658480        0.002563
H        0.864345        1.287433        0.108011
H       -0.870713        1.237483       -0.122608
C       -0.009917       -0.650990       -0.025119
H       -0.777966       -1.336098        0.177593
H        0.824735       -1.277827        0.105566
6
  Step 42: 42.0 fs
C        0.005987        0.651421        0.000920
H        0.894516        1.334048        0.107283
H       -0.862502        1.236150       -0.108597
C       -0.016579       -0.646384       -0.024416
H       -0.781467       -1.341361        0.162808
H        0.875872       -1.288624        0.118259
6
  Step 43: 43.0 fs
C        0.006443        0.646272       -0.000838
H        0.920981        1.368916        0.102996
H       -0.869108        1.240856       -0.093523
C       -0.021133       -0.643786       -0.022611
H       -0.807220       -1.348332        0.142088
H        0.930568       -1.290849        0.127629
6
  Step 44: 44.0 fs
C        0.008211        0.644208       -0.002626
H        0.935695        1.385079        0.094746
H       -0.887150        1.249563       -0.077608
C       -0.023030       -0.644392       -0.019586
H       -0.847500       -1.352985        0.115139
H        0.975723       -1.279263        0.132185
6
  Step 45: 45.0 fs
C        0.010936        0.645871       -0.004415
H        0.935390        1.379919        0.082764
H       -0.909925        1.258176       -0.060965
C       -0.022374       -0.648782       -0.015339
H       -0.892352       -1.350226        0.082044
H        1.003404       -1.253008        0.131360
6
  Step 46: 46.0 fs
C        0.013961        0.651184       -0.006190
H        0.920559        1.354394        0.067737
H       -0.930625        1.262741       -0.043948
C       -0.019565       -0.656731       -0.010007
H       -0.932918       -1.336575        0.043785
H        1.010037       -1.214307        0.125268
6
  Step 47: 47.0 fs
C        0.016455        0.659278       -0.007939
H        0.895955        1.313317        0.050743
H       -0.944372        1.260892       -0.027184
C       -0.015190       -0.667252       -0.003845
H       -0.962817       -1.311088        0.002113
H        0.996504       -1.167958        0.114624
6
  Step 48: 48.0 fs
C        0.017343        0.668560       -0.009653
H        0.872015        1.266150        0.033181
H       -0.948758        1.252215       -0.011443
C       -0.010110       -0.678754        0.002788
H       -0.978482       -1.275293       -0.040782
H        0.969445       -1.121477        0.100767
6
  Step 49: 49.0 fs
C        0.015382        0.677014       -0.011310
H        0.864322        1.225856        0.016468
H       -0.944013        1.238239        0.002518
C       -0.005559       -0.689286        0.009477
H       -0.979484       -1.232899       -0.082705
H        0.942557       -1.084853        0.085519
6
  Step 50: 50.0 fs
C        0.009908        0.682915       -0.012834
H        0.885151        1.202343        0.001421
H       -0.933189        1.222283        0.014087
C       -0.002887       -0.696930        0.015845
H       -0.968740       -1.189327       -0.121892
H        0.933541       -1.068193        0.070527
6
  Step 51: 51.0 fs
C        0.001884        0.685563       -0.014103
H        0.930891        1.194977       -0.011869
H       -0.922074        1.209119        0.022915
C       -0.002539       -0.700382        0.021679
H       -0.952547       -1.151075       -0.157442
H        0.951901       -1.076347        0.056183
6
  Step 52: 52.0 fs
C       -0.006444        0.685091       -0.015017
H        0.984379        1.195758       -0.023313
H       -0.917645        1.203850        0.028917
C       -0.003305       -0.699306        0.026950
H       -0.939254       -1.124535       -0.189515
H        0.988982       -1.105588        0.041809
6
  Step 53: 53.0 fs
C       -0.013033        0.681956       -0.015521
H        1.028261        1.197255       -0.032487
H       -0.924096        1.209548        0.032097
C       -0.003363       -0.694173        0.031646
H       -0.935149       -1.113941       -0.218620
H        1.026577       -1.147150        0.027009
6
  Step 54: 54.0 fs
C       -0.016897        0.676856       -0.015582
H        1.051599        1.195284       -0.038888
H       -0.939582        1.225274        0.032309
C       -0.001649       -0.685968        0.035624
H       -0.940362       -1.119686       -0.244205
H        1.049555       -1.192140        0.012138
6
  Step 55: 55.0 fs
C       -0.018044        0.670752       -0.015173
H        1.049752        1.188345       -0.042110
H       -0.957164        1.246440        0.029255
C        0.001848       -0.676007        0.038596
H       -0.949082       -1.138411       -0.264061
H        1.049732       -1.233558       -0.001986
6
  Step 56: 56.0 fs
C       -0.017016        0.664684       -0.014289
H        1.023068        1.176855       -0.041931
H       -0.968961        1.267216        0.022726
C        0.006521       -0.665732        0.040229
H       -0.953699       -1.164791       -0.275261
H        1.024954       -1.266554       -0.014414
6
  Step 57: 57.0 fs
C       -0.014611        0.659531       -0.012955
H        0.976792        1.163190       -0.038347
H       -0.969441        1.282670        0.012798
C        0.011584       -0.656489        0.040270
H       -0.948642       -1.193422       -0.275437
H        0.977751       -1.288397       -0.024267
6
  Step 58: 58.0 fs
C       -0.011877        0.655764       -0.011216
H        0.922154        1.152399       -0.031579
H       -0.956527        1.289731       -0.000154
C        0.016189       -0.649298        0.038602
H       -0.931752       -1.219817       -0.263451
H        0.915204       -1.299048       -0.030905
6
  Step 59: 59.0 fs
C       -0.010096        0.653300       -0.009132
H        0.876348        1.152470       -0.022024
H       -0.931838        1.287548       -0.015534
C        0.019412       -0.644614        0.035273
H       -0.904522       -1.240922       -0.239588
H        0.849510       -1.302250       -0.034124
6
  Step 60: 60.0 fs
C       -0.010263        0.651657       -0.006775
H        0.856282        1.171284       -0.010011
H       -0.900752        1.277751       -0.032662
C        0.020311       -0.642187        0.030493
H       -0.871965       -1.255507       -0.205525
H        0.797217       -1.306022       -0.034221
6
  Step 61: 61.0 fs
C       -0.012045        0.650562       -0.004236
H        0.865929        1.209422        0.004330
H       -0.872072        1.264583       -0.050955
C        0.018338       -0.641329        0.024585
H       -0.842032       -1.264548       -0.164044
H        0.773681       -1.319117       -0.031634
6
  Step 62: 62.0 fs
C       -0.013705        0.650278       -0.001578
H        0.893555        1.257740        0.020671
H       -0.856116        1.254050       -0.070107
C        0.013996       -0.641651        0.017881
H       -0.824069       -1.271137       -0.118408
H        0.783619       -1.343090       -0.026291
6
  Step 63: 63.0 fs
C       -0.013476        0.651320        0.001180
H        0.923357        1.304203        0.038155
H       -0.859800        1.250745       -0.089927
C        0.008741       -0.643451        0.010649
H       -0.825227       -1.278732       -0.071322
H        0.818500       -1.369623       -0.017769
6
  Step 64: 64.0 fs
C       -0.010624        0.654220        0.003997
H        0.943857        1.339732        0.055609
H       -0.882077        1.254419       -0.109742
C        0.003982       -0.647327        0.003110
H       -0.846470       -1.288295       -0.024402
H        0.864230       -1.387643       -0.006109
6
  Step 65: 65.0 fs
C       -0.005475        0.659361        0.006763
H        0.949028        1.359306        0.071875
H       -0.914654        1.260301       -0.128049
C        0.000400       -0.653710       -0.004496
H       -0.881771       -1.297046        0.021172
H        0.908291       -1.389565        0.007987
6
  Step 66: 66.0 fs
C        0.001108        0.666716        0.009319
H        0.937235        1.361375        0.086001
H       -0.947103        1.262691       -0.142936
C       -0.001961       -0.662594       -0.011875
H       -0.921440       -1.300421        0.063887
H        0.941934       -1.372429        0.023471
6
  Step 67: 67.0 fs
C        0.008106        0.675678        0.011500
H        0.910855        1.347606        0.097393
H       -0.971123        1.257764       -0.152767
C       -0.003341       -0.673419       -0.018697
H       -0.956312       -1.294847        0.101761
H        0.960333       -1.337124        0.039287
6
  Step 68: 68.0 fs
C        0.014366        0.685077        0.013151
H        0.877087        1.323488        0.105998
H       -0.981753        1.244180       -0.156520
C       -0.004073       -0.685147       -0.024647
H       -0.979846       -1.278949        0.132801
H        0.962447       -1.287579        0.054579
6
  Step 69: 69.0 fs
C        0.018575        0.693284        0.014108
H        0.848534        1.298643        0.112569
H       -0.977582        1.222909       -0.153893
C       -0.004583       -0.696396       -0.029484
H       -0.988734       -1.253624        0.155458
H        0.951666       -1.230566        0.068924
6
  Step 70: 70.0 fs
C        0.019533        0.698554        0.014219
H        0.840110        1.284323        0.118505
H       -0.960846        1.196960       -0.145332
C       -0.005422       -0.705609       -0.033094
H       -0.983099       -1.221811        0.168940
H        0.936319       -1.175167        0.082603
6
  Step 71: 71.0 fs
C        0.017038        0.699723        0.013453
H        0.859050        1.286055        0.124629
H       -0.937805        1.171255       -0.132047
C       -0.007148       -0.711287       -0.035520
H       -0.966783       -1.188230        0.173484
H        0.928287       -1.131065        0.096658
6
  Step 72: 72.0 fs
C        0.012512        0.696636        0.011993
H        0.897525        1.298785        0.130015
H       -0.918520        1.152288       -0.115859
C       -0.009798       -0.712325       -0.036922
H       -0.947489       -1.159054        0.170465
H        0.936688       -1.104888        0.112181
6
  Step 73: 73.0 fs
C        0.008109        0.689809        0.010124
H        0.939783        1.312401        0.132740
H       -0.913316        1.146298       -0.098514
C       -0.012407       -0.708282       -0.037443
H       -0.935355       -1.140885        0.162081
H        0.960587       -1.097534        0.128948
6
  Step 74: 74.0 fs
C        0.005297        0.680113        0.008043
H        0.972317        1.318600        0.131270
H       -0.925994        1.155879       -0.080775
C       -0.013512       -0.699472       -0.037078
H       -0.937904       -1.138337        0.150104
H        0.989916       -1.105301        0.145098
6
  Step 75: 75.0 fs
C        0.004273        0.668806        0.005822
H        0.987240        1.312799        0.124937
H       -0.950227        1.177875       -0.062398
C       -0.012256       -0.686946       -0.035669
H       -0.954334       -1.151417        0.134633
H        1.012910       -1.122929        0.158181
6
  Step 76: 76.0 fs
C        0.004398        0.657437        0.003496
H        0.981808        1.293659        0.113829
H       -0.974397        1.205399       -0.043110
C       -0.008801       -0.672367       -0.033006
H       -0.975749       -1.175415        0.114434
H        1.021312       -1.145536        0.166199
6
  Step 77: 77.0 fs
C        0.004830        0.647551        0.001114
H        0.957633        1.262608        0.098640
H       -0.988400        1.231438       -0.023237
C       -0.003896       -0.657709       -0.028982
H       -0.991177       -1.203539        0.088451
H        1.011378       -1.169211        0.167939
6
  Step 78: 78.0 fs
C        0.004706        0.640399       -0.001266
H        0.921103        1.224175        0.080607
H       -0.986454        1.250805       -0.003641
C        0.001598       -0.644916       -0.023658
H       -0.992657       -1.229567        0.056743
H        0.983516       -1.191275        0.163030
6
  Step 79: 79.0 fs
C        0.003076        0.636664       -0.003608
H        0.884226        1.186500        0.061419
H       -0.967224        1.260695        0.014577
C        0.006846       -0.635590       -0.017254
H       -0.976592       -1.248985        0.020451
H        0.942020       -1.210642        0.151931
6
  Step 80: 80.0 fs
C       -0.001019        0.636290       -0.005901
H        0.863305        1.160200        0.042837
H       -0.933542        1.260934        0.030346
C        0.011070       -0.630664       -0.010097
H       -0.943838       -1.259487       -0.018614
H        0.894980       -1.228279        0.135883
6
  Step 81: 81.0 fs
C       -0.007839        0.638728       -0.008097
H        0.870645        1.152866        0.025930
H       -0.892670        1.254495        0.042849
C        0.013606       -0.630196       -0.002578
H       -0.899553       -1.261293       -0.058371
H        0.853492       -1.247291        0.116674
6
  Step 82: 82.0 fs
C       -0.016027        0.643378       -0.010111
H        0.903827        1.162838        0.010787
H       -0.856532        1.248098        0.051808
C        0.014167       -0.633441        0.004939
H       -0.853053       -1.257543       -0.097041
H        0.828495       -1.271341        0.095997
6
  Step 83: 83.0 fs
C       -0.023039        0.649589       -0.011884
H        0.948127        1.181571       -0.002721
H       -0.839127        1.250908        0.057594
C        0.013189       -0.639237        0.012222
H       -0.816795       -1.254180       -0.133744
H        0.825673       -1.301185        0.074825
6
  Step 84: 84.0 fs
C       -0.026777        0.656716       -0.013389
H        0.987942        1.200645       -0.014385
H       -0.848621        1.268859        0.060671
C        0.011723       -0.646565        0.019167
H       -0.802053       -1.257511       -0.168606
H        0.842576       -1.332477        0.053509
6
  Step 85: 85.0 fs
C       -0.026708        0.664536       -0.014561
H        1.012780        1.214789       -0.023774
H       -0.880086        1.298672        0.060732
C        0.010684       -0.654917        0.025653
H       -0.812455       -1.269677       -0.201486
H        0.871159       -1.357936        0.032427
6
  Step 86: 86.0 fs
C       -0.023525        0.673130       -0.015296
H        1.017525        1.221655       -0.030481
H       -0.919768        1.330543        0.056927
C        0.010274       -0.664228        0.031396
H       -0.841710       -1.286670       -0.230446
H        0.902348       -1.371134        0.012281
6
  Step 87: 87.0 fs
C       -0.018317        0.682382       -0.015525
H        1.001622        1.221196       -0.034238
H       -0.954217        1.354996        0.048711
C        0.010153       -0.674460        0.036000
H       -0.878492       -1.301671       -0.252220
H        0.928909       -1.368449       -0.006065
6
  Step 88: 88.0 fs
C       -0.012201        0.691735       -0.015230
H        0.969051        1.215557       -0.034970
H       -0.974593        1.366142        0.036176
C        0.009863       -0.685257        0.039117
H       -0.912335       -1.309148       -0.263829
H        0.946344       -1.349290       -0.021824
6
  Step 89: 89.0 fs
C       -0.006387        0.700212       -0.014426
H        0.929065        1.209444       -0.032812
H       -0.976761        1.361639        0.019912
C        0.009002       -0.695895        0.040529
H       -0.936018       -1.306257       -0.263503
H        0.953211       -1.315838       -0.034430
6
  Step 90: 90.0 fs
C       -0.002190        0.706537       -0.013152
H        0.895839        1.209947       -0.028093
H       -0.960726        1.342067        0.000811
C        0.007239       -0.705379        0.040179
H       -0.945892       -1.292735       -0.250886
H        0.951312       -1.272670       -0.043660
6
  Step 91: 91.0 fs
C       -0.000564        0.709425       -0.011466
H        0.883108        1.223747       -0.021176
H       -0.930849        1.310828       -0.020116
C        0.004316       -0.712563        0.038168
H       -0.941896       -1.270594       -0.226997
H        0.945614       -1.226203       -0.049679
6
  Step 92: 92.0 fs
C       -0.001184        0.708028       -0.009445
H        0.894280        1.251693       -0.012286
H       -0.896660        1.274502       -0.041994
C        0.000164       -0.716272        0.034754
H       -0.927987       -1.244098       -0.194168
H        0.943180       -1.183525       -0.052936
6
  Step 93: 93.0 fs
C       -0.002251        0.702141       -0.007147
H        0.919709        1.286953       -0.001624