6
  Step 0: 0.0 fs
C        0.000000        0.665095       -0.000000
H        0.925303        1.240823        0.000007
H       -0.925313        1.240818       -0.000001
C        0.000002       -0.665094       -0.000001
H       -0.925318       -1.240820        0.000011
H        0.925302       -1.240824        0.000003
6
  Step 1: 1.0 fs
C       -0.008101        0.677968        0.006422
H        0.961745        1.213165       -0.042178
H       -0.912292        1.246918       -0.010804
C        0.008944       -0.667477       -0.002080
H       -0.992897       -1.309484       -0.015046
H        0.933404       -1.275513        0.016328
6
  Step 2: 2.0 fs
C       -0.014990        0.689725        0.012595
H        0.991838        1.185070       -0.082556
H       -0.904847        1.257075       -0.021384
C        0.016296       -0.670611       -0.004084
H       -1.039847       -1.364032       -0.029306
H        0.937309       -1.305691        0.031913
6
  Step 3: 3.0 fs
C       -0.019738        0.699411        0.018276
H        1.010540        1.156917       -0.119206
H       -0.906525        1.273883       -0.031718
C        0.021387       -0.674609       -0.005943
H       -1.058089       -1.398173       -0.041942
H        0.934441       -1.327929        0.046022
6
  Step 4: 4.0 fs
C       -0.022025        0.706395        0.023242
H        1.015302        1.130049       -0.150416
H       -0.916305        1.296761       -0.041729
C        0.023874       -0.679268       -0.007589
H       -1.045450       -1.409453       -0.052267
H        0.924435       -1.340332        0.058030
6
  Step 5: 5.0 fs
C       -0.022154        0.710395        0.027295
H        1.006491        1.106622       -0.174945
H       -0.928951        1.322027       -0.051045
C        0.023514       -0.684226       -0.008968
H       -1.003003       -1.397534       -0.059739
H        0.909268       -1.342689        0.067515
6
  Step 6: 6.0 fs
C       -0.020829        0.711339        0.030279
H        0.987493        1.089356       -0.192225
H       -0.937932        1.344771       -0.059053
C        0.020219       -0.688953       -0.010041
H       -0.935306       -1.364317       -0.064007
H        0.893002       -1.336332        0.074312
6
  Step 7: 7.0 fs
C       -0.018894        0.709218        0.032117
H        0.964290        1.081185       -0.202464
H       -0.938261        1.360769       -0.065123
C        0.014398       -0.692594       -0.010766
H       -0.853572       -1.316189       -0.065139
H        0.881075       -1.323679        0.078500
6
  Step 8: 8.0 fs
C       -0.017139        0.704037        0.032811
H        0.944213        1.084725       -0.206472
H       -0.927744        1.367446       -0.068776
C        0.007638       -0.693631       -0.011048
H       -0.781949       -1.268830       -0.064136
H        0.878592       -1.307223        0.080262
6
  Step 9: 9.0 fs
C       -0.016039        0.695900        0.032390
H        0.933069        1.101224       -0.204988
H       -0.907231        1.364167       -0.069776
C        0.002938       -0.689905       -0.010702
H       -0.757822       -1.248350       -0.063134
H        0.887972       -1.288394        0.079669
6
  Step 10: 10.0 fs
C       -0.015507        0.685182        0.030864
H        0.932218        1.129495       -0.197935
H       -0.880544        1.352324       -0.068167
C        0.002082       -0.680638       -0.009628
H       -0.799586       -1.268595       -0.063318
H        0.907761       -1.267300        0.076568
6
  Step 11: 11.0 fs
C       -0.014876        0.672662        0.028216
H        0.938113        1.165611       -0.184390
H       -0.854029        1.335238       -0.064298
C        0.003249       -0.668209       -0.007982
H       -0.879039       -1.310471       -0.062930
H        0.933385       -1.243363        0.070706
6
  Step 12: 12.0 fs
C       -0.013234        0.659456        0.024459
H        0.944814        1.203891       -0.163403
H       -0.835168        1.317470       -0.058704
C        0.004123       -0.655729       -0.005966
H       -0.960075       -1.349567       -0.060027
H        0.958899       -1.216142        0.061948
6
  Step 13: 13.0 fs
C       -0.009906        0.646937        0.019679
H        0.947061        1.238608       -0.134797
H       -0.829835        1.302877       -0.051844
C        0.003671       -0.645489       -0.003710
H       -1.022020       -1.372680       -0.053944
H        0.979016       -1.186009        0.050443
6
  Step 14: 14.0 fs
C       -0.004771        0.636672        0.014027
H        0.941735        1.265264       -0.099387
H       -0.839594        1.292463       -0.043900
C        0.001672       -0.639069       -0.001307
H       -1.055652       -1.374692       -0.044822
H        0.990394       -1.154463        0.036658
6
  Step 15: 15.0 fs
C        0.001700        0.630164        0.007700
H        0.928188        1.281272       -0.058792
H       -0.861119        1.283948       -0.034872
C       -0.001855       -0.637435        0.001161
H       -1.057452       -1.354482       -0.033162
H        0.992222       -1.124118        0.021317
6
  Step 16: 16.0 fs
C        0.008644        0.628393        0.000943
H        0.908224        1.286299       -0.015108
H       -0.888285        1.273550       -0.024874
C       -0.006854       -0.640817        0.003619
H       -1.027424       -1.313454       -0.019635
H        0.986164       -1.098420        0.005301
6
  Step 17: 17.0 fs
C        0.015044        0.631434       -0.005967
H        0.886090        1.282541        0.029454
H       -0.914890        1.258229       -0.014272
C       -0.013114       -0.648522        0.006001
H       -0.970021       -1.256128       -0.005086
H        0.975825       -1.081138       -0.010501
6
  Step 18: 18.0 fs
C        0.019886        0.638408       -0.012755
H        0.868075        1.274532        0.073037
H       -0.936300        1.236841       -0.003629
C       -0.019734       -0.658786        0.008251
H       -0.899114       -1.193095        0.009516
H        0.965517       -1.075594       -0.025295
6
  Step 19: 19.0 fs
C        0.022344        0.647813       -0.019192
H        0.860802        1.267797        0.114508
H       -0.950030        1.210226        0.006450
C       -0.024286       -0.668737        0.010295
H       -0.846006       -1.145050        0.023404
H        0.958341       -1.083785       -0.038427
6
  Step 20: 20.0 fs
C        0.022094        0.658120       -0.025090
H        0.867675        1.265965        0.153181
H       -0.955927        1.180879        0.015469
C       -0.023345       -0.675274        0.011985
H       -0.851890       -1.136586        0.036726
H        0.955028       -1.105959       -0.049334
6
  Step 21: 21.0 fs
C        0.019542        0.668225       -0.030244
H        0.886365        1.268868        0.187886
H       -0.956215        1.152510        0.023139
C       -0.016725       -0.677704        0.013179
H       -0.918162       -1.167627        0.049694
H        0.954455       -1.140826       -0.057522
6
  Step 22: 22.0 fs
C        0.015703        0.677451       -0.034415
H        0.909934        1.273377        0.216558
H       -0.955117        1.129408        0.029448
C       -0.007754       -0.677662        0.013886
H       -1.003687       -1.214506        0.060999
H        0.954203       -1.185705       -0.062573
6
  Step 23: 23.0 fs
C        0.011744        0.685314       -0.037371
H        0.930579        1.275929        0.236888
H       -0.957451        1.115425        0.034584
C        0.000976       -0.676618        0.014154
H       -1.075355       -1.258275        0.069117
H        0.950754       -1.236557       -0.064137
6
  Step 24: 24.0 fs
C        0.008532        0.691442       -0.038951
H        0.942474        1.274276        0.247122
H       -0.966106        1.112722        0.038745
C        0.008339       -0.675387        0.014001
H       -1.117893       -1.289545        0.073204
H        0.940626       -1.288556       -0.061987
6
  Step 25: 25.0 fs
C        0.006388        0.695604       -0.039070
H        0.942791        1.267894        0.246489
H       -0.980124        1.121020        0.041874
C        0.013916       -0.674410        0.013435
H       -1.126094       -1.304251        0.072973
H        0.921654       -1.336948       -0.056111
6
  Step 26: 26.0 fs
C        0.005090        0.697694       -0.037725
H        0.931937        1.257970        0.235295
H       -0.995039        1.137893        0.043616
C        0.017490       -0.673946        0.012479
H       -1.099455       -1.300786        0.068417
H        0.893686       -1.377767       -0.046733
6
  Step 27: 27.0 fs
C        0.004063        0.697643       -0.035006
H        0.913493        1.247278        0.214873
H       -1.005184        1.159821        0.043499
C        0.018909       -0.674076        0.011170
H       -1.040794       -1.279181        0.059749
H        0.858939       -1.408451       -0.034306
6
  Step 28: 28.0 fs
C        0.002605        0.695356       -0.031095
H        0.893789        1.239867        0.187351
H       -1.006110        1.183289        0.041156
C        0.018239       -0.674619        0.009556
H       -0.957742       -1.241884        0.047439
H        0.821865       -1.428111       -0.019483
6
  Step 29: 29.0 fs
C        0.000122        0.690742       -0.026218
H        0.880149        1.239982        0.155015
H       -0.995862        1.205464        0.036433
C        0.016236       -0.674869        0.007671
H       -0.867813       -1.196706        0.032388
H        0.788736       -1.437649       -0.002990
6
  Step 30: 30.0 fs
C       -0.003552        0.683893       -0.020574
H        0.877316        1.249843        0.119438
H       -0.975320        1.224532        0.029383
C        0.015004       -0.673309        0.005530
H       -0.804749       -1.161007        0.015793
H        0.766386       -1.439304        0.014521
6
  Step 31: 31.0 fs
C       -0.007945        0.675288       -0.014310
H        0.884574        1.267792        0.081292
H       -0.947986        1.239910        0.020203
C        0.017228       -0.668246        0.003202
H       -0.807110       -1.156050       -0.001813
H        0.759967       -1.435412        0.032577
6
  Step 32: 32.0 fs
C       -0.012061        0.665847       -0.007578
H        0.896482        1.288711        0.041153
H       -0.919264        1.252253        0.009174
C        0.022500       -0.660242        0.000833
H       -0.872514       -1.180598       -0.020802
H        0.770990       -1.427024        0.050788
6
  Step 33: 33.0 fs
C       -0.014834        0.656742       -0.000587
H        0.906596        1.306524        0.000224
H       -0.895089        1.263030       -0.003398
C        0.027704       -0.651930       -0.001505
H       -0.961503       -1.213431       -0.040513
H        0.796731       -1.413334        0.068607
6
  Step 34: 34.0 fs
C       -0.015548        0.649129        0.006400
H        0.910386        1.316370       -0.039600
H       -0.879934        1.273459       -0.017209
C        0.030678       -0.645638       -0.003794
H       -1.042112       -1.238907       -0.059404
H        0.831489       -1.392400        0.085186
6
  Step 35: 35.0 fs
C       -0.014018        0.644001        0.013101
H        0.906057        1.315517       -0.076175
H       -0.875273        1.283358       -0.031867
C        0.030676       -0.642792       -0.005995
H       -1.098064       -1.250529       -0.076056
H        0.868920       -1.362648        0.099492
6
  Step 36: 36.0 fs
C       -0.010558        0.642041        0.019241
H        0.894489        1.303598       -0.107543
H       -0.879500        1.290896       -0.046784
C        0.027643       -0.644035       -0.008054
H       -1.122200       -1.246691       -0.089421
H        0.903767       -1.323962        0.110557
6
  Step 37: 37.0 fs
C       -0.005837        0.643423        0.024576
H        0.879075        1.282662       -0.132298
H       -0.889204        1.293504       -0.061161
C        0.021732       -0.649307       -0.009917
H       -1.111777       -1.228021       -0.098725
H        0.932627       -1.277979        0.117653
6
  Step 38: 38.0 fs
C       -0.000741        0.647690        0.028925
H        0.865595        1.257094       -0.149877
H       -0.900723        1.289170       -0.074120
C        0.013212       -0.657891       -0.011533
H       -1.067420       -1.196876       -0.103466
H        0.954033       -1.227832        0.120391
6
  Step 39: 39.0 fs
C        0.003762        0.653838        0.032196
H        0.861390        1.232874       -0.160691
H       -0.911125        1.277270       -0.084879
C        0.002669       -0.668463       -0.012838
H       -0.995059       -1.158282       -0.103628
H        0.968194       -1.177623        0.118717
6
  Step 40: 40.0 fs
C        0.006875        0.660645        0.034365
H        0.872513        1.215301       -0.165632
H       -0.918669        1.258821       -0.092912
C       -0.008399       -0.679080       -0.013701
H       -0.912093       -1.122813       -0.100324
H        0.976360       -1.131699        0.112847
6
  Step 41: 41.0 fs
C        0.008312        0.667067        0.035404
H        0.899746        1.206231       -0.165040
H       -0.923029        1.236361       -0.098030
C       -0.016876       -0.687093       -0.013851
H       -0.855017       -1.109991       -0.096741
H        0.980238       -1.094040        0.103188
6
  Step 42: 42.0 fs
C        0.008423        0.672445        0.035251
H        0.937227        1.203478       -0.158235
H       -0.925257        1.213514       -0.100375
C       -0.019455       -0.689988       -0.012995
H       -0.862492       -1.140092       -0.096686
H        0.981853       -1.067895        0.090303
6
  Step 43: 43.0 fs
C        0.007946        0.676481        0.033860
H        0.975448        1.203031       -0.144216
H       -0.927353        1.194278       -0.100329
C       -0.017107       -0.687743       -0.011279
H       -0.922870       -1.207342       -0.099217
H        0.983828       -1.055753        0.074907
6
  Step 44: 44.0 fs
C        0.007607        0.679088        0.031263
H        1.005524        1.201454       -0.122602
H       -0.931280        1.182096       -0.098295
C       -0.013444       -0.682279       -0.009118
H       -0.992936       -1.286540       -0.100462
H        0.988161       -1.058898        0.057699
6
  Step 45: 45.0 fs
C        0.007832        0.680306        0.027568
H        1.021590        1.196860       -0.093930
H       -0.937680        1.178897       -0.094463
C       -0.010674       -0.675331       -0.006795
H       -1.044316       -1.358140       -0.098149
H        0.994221       -1.076728        0.039215
6
  Step 46: 46.0 fs
C        0.008652        0.680288        0.022942
H        1.021319        1.188929       -0.059482
H       -0.945163        1.184709       -0.088740
C       -0.009426       -0.668136       -0.004462
H       -1.065525       -1.411619       -0.091720
H        0.998557       -1.106583        0.019923
6
  Step 47: 47.0 fs
C        0.009737        0.679263        0.017585
H        1.006056        1.178853       -0.021000
H       -0.950768        1.197945       -0.080880
C       -0.009597       -0.661691       -0.002227
H       -1.053584       -1.441648       -0.081411
H        0.996597       -1.144242        0.000438
6
  Step 48: 48.0 fs
C        0.010494        0.677443        0.011724
H        0.980735        1.169244        0.019653
H       -0.951270        1.216118       -0.070725
C       -0.010890       -0.656847       -0.000195
H       -1.009614       -1.445628       -0.067807
H        0.984825       -1.184827       -0.018390
6
  Step 49: 49.0 fs
C        0.010226        0.674949        0.005587
H        0.953161        1.163777        0.060896
H       -0.944521        1.236630       -0.058365
C       -0.012971       -0.654234        0.001534
H       -0.938046       -1.423270       -0.051747
H        0.962063       -1.223652       -0.035565
6
  Step 50: 50.0 fs
C        0.008363        0.671826       -0.000623
H        0.931662        1.166038        0.101709
H       -0.930199        1.257296       -0.044179
C       -0.015334       -0.654015        0.002889
H       -0.848597       -1.378309       -0.034386
H        0.930099       -1.256960       -0.050113
6
  Step 51: 51.0 fs
C        0.004815        0.668161       -0.006708
H        0.921029        1.177475        0.141294
H       -0.910027        1.276709       -0.028754
C       -0.016837       -0.655407        0.003852
H       -0.761615       -1.323431       -0.017289
H        0.893723       -1.282479       -0.061232
6
  Step 52: 52.0 fs
C        0.000129        0.664213       -0.012422
H        0.920082        1.195985        0.178242
H       -0.887462        1.294325       -0.012785
C       -0.015211       -0.656193        0.004451
H       -0.712999       -1.285836       -0.002051
H        0.859918       -1.299827       -0.068491
6
  Step 53: 53.0 fs
C       -0.004725        0.660465       -0.017454
H        0.923441        1.216837        0.210209
H       -0.866793        1.310219        0.003051
C       -0.008525       -0.654172        0.004665
H       -0.735040       -1.291346        0.010929
H        0.836130       -1.310485       -0.071902
6
  Step 54: 54.0 fs
C       -0.008787        0.657584       -0.021494
H        0.925372        1.235067        0.234581
H       -0.851919        1.324536        0.018145
C        0.001444       -0.650500        0.004443
H       -0.813828       -1.326908        0.022044
H        0.827776       -1.316897       -0.071738
6
  Step 55: 55.0 fs
C       -0.011435        0.656228       -0.024297
H        0.922240        1.247120        0.249312
H       -0.845152        1.336810        0.031932
C        0.011217       -0.647889        0.003823
H       -0.910616       -1.362144        0.030805
H        0.836086       -1.320930       -0.068252
6
  Step 56: 56.0 fs
C       -0.012470        0.656819       -0.025710
H        0.912968        1.251310        0.253358
H       -0.846805        1.345690        0.043827
C        0.018688       -0.647934        0.002857
H       -0.998149       -1.379922        0.036485
H        0.857904       -1.322713       -0.061549
6
  Step 57: 57.0 fs
C       -0.012062        0.659417       -0.025682
H        0.898911        1.247924        0.246779
H       -0.855589        1.349249        0.053234
C        0.023125       -0.651134        0.001582
H       -1.062436       -1.374852        0.038652
H        0.887347       -1.320782       -0.051702
6
  Step 58: 58.0 fs
C       -0.010650        0.663669       -0.024265
H        0.883695        1.239221        0.230702
H       -0.869376        1.345660        0.059646
C        0.024444       -0.657341        0.000030
H       -1.096531       -1.346813        0.037178
H        0.917941       -1.313250       -0.038948
6
  Step 59: 59.0 fs
C       -0.008852        0.668838       -0.021612
H        0.872842        1.229210        0.207127
H       -0.885907        1.333856        0.062749
C        0.022786       -0.665967       -0.001757
H       -1.097155       -1.298062        0.032152
H        0.944275       -1.299024       -0.023765
6
  Step 60: 60.0 fs
C       -0.007304        0.673954       -0.017937
H        0.872341        1.222660        0.178356
H       -0.903242        1.313898        0.062493
C        0.018416       -0.676081       -0.003717
H       -1.064129       -1.232741        0.023861
H        0.962680       -1.278323       -0.006859
6
  Step 61: 61.0 fs
C       -0.006389        0.678082       -0.013446
H        0.885508        1.222958        0.146095
H       -0.920018        1.287061        0.059086
C        0.011905       -0.686410       -0.005782
H       -1.002639       -1.157960        0.012857
H        0.971429       -1.252736        0.010927
6
  Step 62: 62.0 fs
C       -0.005987        0.680588       -0.008293
H        0.910163        1.230260        0.111052
H       -0.935584        1.255652        0.052916
C        0.004675       -0.695235       -0.007888
H       -0.929686       -1.086304       -0.000025
H        0.970691       -1.225040        0.028735
6
  Step 63: 63.0 fs
C       -0.005532        0.681211       -0.002616
H        0.939025        1.241661        0.073574
H       -0.949905        1.222585        0.044440
C       -0.000285       -0.700328       -0.009973
H       -0.882355       -1.037545       -0.013901
H        0.962455       -1.198908        0.045802
6
  Step 64: 64.0 fs
C       -0.004359        0.679978        0.003403
H        0.963373        1.253198        0.034458
H       -0.963139        1.190796        0.034066
C        0.000184       -0.699785       -0.011921
H       -0.901237       -1.029369       -0.028682
H        0.950671       -1.178608        0.061594
6
  Step 65: 65.0 fs
C       -0.002035        0.677117        0.009532
H        0.976412        1.261671       -0.004802
H       -0.975060        1.162708        0.022113
C        0.004830       -0.693760       -0.013623
H       -0.975715       -1.057482       -0.044460
H        0.941043       -1.168552        0.075875
6
  Step 66: 66.0 fs
C        0.001491        0.673000        0.015512
H        0.974622        1.265294       -0.042351
H       -0.984676        1.139920        0.008854
C        0.009623       -0.683862       -0.015095
H       -1.060683       -1.103765       -0.060003
H        0.938366       -1.171941        0.088555
6
  Step 67: 67.0 fs
C        0.005911        0.668107        0.021083
H        0.957992        1.263826       -0.076365
H       -0.990439        1.123200       -0.005360
C        0.012144       -0.671825       -0.016359
H       -1.125207       -1.153740       -0.073748
H        0.942633       -1.188825        0.099243
6
  Step 68: 68.0 fs
C        0.010650        0.662974        0.026020
H        0.929962        1.258730       -0.105425
H       -0.990916        1.112745       -0.020044
C        0.011889       -0.659364       -0.017365
H       -1.156077       -1.198676       -0.084579
H        0.948624       -1.215599        0.107001
6
  Step 69: 69.0 fs
C        0.014981        0.658128        0.030166
H        0.897055        1.253185       -0.128812
H       -0.985469        1.108453       -0.034609
C        0.009238       -0.648195       -0.018023
H       -1.149310       -1.233206       -0.091788
H        0.949316       -1.246513        0.110641
6
  Step 70: 70.0 fs
C        0.018157        0.653999        0.033443
H        0.867828        1.251633       -0.146629
H       -0.974674        1.110134       -0.048436
C        0.004746       -0.639881       -0.018259
H       -1.105433       -1.253812       -0.094957
H        0.939533       -1.275857        0.109245
6
  Step 71: 71.0 fs
C        0.019641        0.650923        0.035833
H        0.850078        1.258050       -0.159383
H       -0.960365        1.117645       -0.060974
C       -0.001037       -0.635610       -0.018035
H       -1.028637       -1.258666       -0.093964
H        0.917365       -1.299167        0.102429
6
  Step 72: 72.0 fs
C        0.019369        0.649215        0.037295
H        0.847189        1.273345       -0.167138
H       -0.945255        1.130896       -0.071799
C       -0.007434       -0.635873       -0.017337
H       -0.928755       -1.248939       -0.089145
H        0.884669       -1.313954        0.090461
6
  Step 73: 73.0 fs
C        0.017762        0.649171        0.037731
H        0.856866        1.294245       -0.168981
H       -0.932115        1.149682       -0.080608
C       -0.013165       -0.640004       -0.016135
H       -0.826611       -1.232835       -0.081765
H        0.847079       -1.320040        0.074234
6
  Step 74: 74.0 fs
C        0.015456        0.650966        0.037007
H        0.873281        1.314883       -0.163536
H       -0.922788        1.173360       -0.087123
C       -0.015917       -0.645714       -0.014331
H       -0.758632       -1.230830       -0.074449
H        0.813585       -1.319740        0.055121
6
  Step 75: 75.0 fs
C        0.012975        0.654601        0.035036
H        0.890378        1.329562       -0.149900
H       -0.917560        1.200550       -0.090979
C       -0.013768       -0.650186       -0.011852
H       -0.758198       -1.265050       -0.069733
H        0.794778       -1.317417        0.034590
6
  Step 76: 76.0 fs
C        0.010595        0.659984        0.031817
H        0.903845        1.334522       -0.128130
H       -0.915231        1.229129       -0.091744
C       -0.008252       -0.653216       -0.008899
H       -0.815104       -1.326756       -0.066704
H        0.798546       -1.317271        0.013712
6
  Step 77: 77.0 fs
C        0.008370        0.666889        0.027446
H        0.911640        1.328352       -0.099200
H       -0.913863        1.256644       -0.089046
C       -0.002484       -0.656519       -0.005771
H       -0.893272       -1.388059       -0.062815
H        0.825364       -1.320206       -0.007005
6
  Step 78: 78.0 fs
C        0.006186        0.674820        0.022103
H        0.914089        1.311907       -0.064746
H       -0.911688        1.280906       -0.082734
C        0.001855       -0.661308       -0.002671
H       -0.966006       -1.430620       -0.056709
H        0.867818       -1.322863       -0.027164
6
  Step 79: 79.0 fs
C        0.003830        0.683006        0.016021
H        0.913690        1.287940       -0.026694
H       -0.907699        1.300448       -0.072971
C        0.004415       -0.667957        0.000267
H       -1.019128       -1.447223       -0.048171
H        0.914910       -1.320135       -0.046081
6
  Step 80: 80.0 fs
C        0.001054        0.690485        0.009466
H        0.914556        1.260497        0.013093
H       -0.901899        1.314757       -0.060221
C        0.005340       -0.676242        0.002920
H       -1.045592       -1.436414       -0.037536
H        0.956749       -1.308213       -0.062802
6
  Step 81: 81.0 fs
C       -0.002296        0.696277        0.002696
H        0.920801        1.233651        0.053112
H       -0.895251        1.324283       -0.045148
C        0.004828       -0.685563        0.005183
H       -1.042244       -1.399621       -0.025403
H        0.986489       -1.285656       -0.076358
6
  Step 82: 82.0 fs
C       -0.006107        0.699594       -0.004049
H        0.934154        1.209955        0.092189
H       -0.889362        1.330219       -0.028479
C        0.003062       -0.695052        0.006974
H       -1.009302       -1.340682       -0.012526
H        1.000712       -1.253354       -0.085986
6
  Step 83: 83.0 fs
C       -0.009937        0.699980       -0.010517
H        0.952477        1.189839        0.129000
H       -0.885860        1.333998       -0.010876
C        0.000395       -0.703536        0.008246
H       -0.952475       -1.267078        0.000210
H        0.999413       -1.214199       -0.091281
6
  Step 84: 84.0 fs
C       -0.013170        0.697321       -0.016431
H        0.970822        1.172335        0.161800
H       -0.885641        1.336643        0.007098
C       -0.002177       -0.709340        0.008997
H       -0.888611       -1.192826        0.011910
H        0.986103       -1.172810       -0.092276
6
  Step 85: 85.0 fs
C       -0.015281        0.691807       -0.021511
H        0.983874        1.156288        0.188621
H       -0.888321        1.338232        0.024923
C       -0.002512       -0.710210        0.009237
H       -0.851471       -1.140078        0.022096
H        0.967717       -1.135088       -0.089478
6
  Step 86: 86.0 fs
C       -0.016005        0.683890       -0.025504
H        0.987979        1.141187        0.207711
H       -0.892279        1.337798        0.042026
C        0.001186       -0.704372        0.008954
H       -0.873249       -1.127337        0.031124
H        0.953937       -1.107535       -0.083778
6
  Step 87: 87.0 fs
C       -0.015364        0.674263       -0.028219
H        0.981987        1.127409        0.217921
H       -0.895321        1.333774        0.057722
C        0.007025       -0.692445        0.008181
H       -0.941377       -1.148812        0.039025
H        0.953945       -1.095651       -0.076057
6
  Step 88: 88.0 fs
C       -0.013622        0.663794       -0.029549
H        0.967438        1.116178        0.218937
H       -0.895607        1.324748        0.071245
C        0.011531       -0.676720        0.007007
H       -1.017130       -1.185395        0.044831
H        0.970135       -1.101380       -0.066587
6
  Step 89: 89.0 fs
C       -0.011210        0.653463       -0.029483
H        0.948286        1.109400        0.211314
H       -0.892400        1.310119        0.081879
C        0.013134       -0.659771        0.005469
H       -1.073823       -1.222582        0.047703
H        0.994979       -1.121578       -0.054948
6
  Step 90: 90.0 fs
C       -0.008614        0.644307       -0.028109
H        0.930179        1.109417        0.196293
H       -0.886460        1.290484        0.089110
C        0.011931       -0.644110        0.003592
H       -1.099626       -1.252153        0.047288
H        1.016352       -1.149846       -0.040751
6
  Step 91: 91.0 fs
C       -0.006206        0.637354       -0.025579
H        0.918775        1.118360        0.175349
H       -0.880089        1.267727        0.092755
C        0.008556       -0.632037        0.001431
H       -1.090917       -1.269600        0.043616
H        1.024192       -1.179541       -0.024174
6
  Step 92: 92.0 fs
C       -0.004065        0.633475       -0.022047
H        0.917260        1.137026        0.149590
H       -0.876721        1.244752        0.092977
C        0.003629       -0.625361       -0.000926
H       -1.048490       -1.272630        0.036948
H        1.013083       -1.205505       -0.005958
6
  Step 93: 93.0 fs
C       -0.001920        0.633221       -0.017644
H        0.924703        1.163986        0.119547