6
  Step 0: 0.0 fs
C        0.000001        0.665091        0.000000
H        0.925304        1.240819       -0.000001
H       -0.925311        1.240815        0.000001
C        0.000000       -0.665090       -0.000001
H       -0.925309       -1.240824        0.000005
H        0.925304       -1.240822        0.000007
6
  Step 1: 1.0 fs
C        0.006591        0.671627        0.001527
H        0.885711        1.205457       -0.015711
H       -0.916435        1.153322        0.019975
C       -0.011264       -0.661456       -0.006598
H       -0.885845       -1.211771        0.010217
H        0.972208       -1.268106        0.045903
6
  Step 2: 2.0 fs
C        0.012552        0.675907        0.002993
H        0.865672        1.184081       -0.031101
H       -0.922390        1.078960        0.039476
C       -0.019414       -0.657624       -0.012915
H       -0.865107       -1.194437        0.020464
H        1.003539       -1.286295        0.089301
6
  Step 3: 3.0 fs
C        0.017158        0.676488        0.004360
H        0.879740        1.187365       -0.046465
H       -0.952150        1.025865        0.058465
C       -0.022439       -0.653363       -0.018694
H       -0.876439       -1.197244        0.031333
H        1.011755       -1.291317        0.127336
6
  Step 4: 4.0 fs
C        0.020179        0.673799        0.005588
H        0.921849        1.213262       -0.061559
H       -0.999770        0.994678        0.076511
C       -0.020372       -0.649349       -0.023675
H       -0.914598       -1.216684        0.042866
H        0.994843       -1.282353        0.157535
6
  Step 5: 5.0 fs
C        0.021885        0.669520        0.006613
H        0.971111        1.250048       -0.074945
H       -1.049798        0.982169        0.092430
C       -0.014742       -0.646866       -0.027574
H       -0.961424       -1.240907        0.053933
H        0.955092       -1.261021        0.178158
6
  Step 6: 6.0 fs
C        0.022495        0.665313        0.007376
H        1.008804        1.286078       -0.084917
H       -1.087650        0.984729        0.104802
C       -0.007408       -0.646810       -0.030187
H       -1.000327       -1.259219        0.063050
H        0.899574       -1.231868        0.188679
6
  Step 7: 7.0 fs
C        0.022066        0.662297        0.007841
H        1.024241        1.313693       -0.090295
H       -1.104060        0.999268        0.112504
C       -0.000326       -0.649145       -0.031528
H       -1.021469       -1.265501        0.069110
H        0.842478       -1.204030        0.190718
6
  Step 8: 8.0 fs
C        0.020614        0.661025        0.007987
H        1.013379        1.328899       -0.090500
H       -1.095007        1.023186        0.114860
C        0.004333       -0.652868       -0.031883
H       -1.020851       -1.257529        0.071506
H        0.805487       -1.191643        0.188650
6
  Step 9: 9.0 fs
C        0.018223        0.661589        0.007809
H        0.976900        1.330494       -0.085503
H       -1.061017        1.054323        0.111695
C        0.004947       -0.656722       -0.031598
H       -0.998903       -1.235894        0.070100
H        0.807207       -1.206842        0.186959
6
  Step 10: 10.0 fs
C        0.015064        0.663665        0.007317
H        0.920105        1.320126       -0.075849
H       -1.007334        1.091238        0.103421
C        0.002016       -0.660343       -0.030640
H       -0.960719       -1.204007        0.065283
H        0.844642       -1.246870        0.184841
6
  Step 11: 11.0 fs
C        0.011322        0.666398        0.006539
H        0.854541        1.303432       -0.062731
H       -0.944763        1.133890        0.091093
C       -0.002002       -0.664029       -0.028711
H       -0.917709       -1.169097        0.058161
H        0.897033       -1.296384        0.177464
6
  Step 12: 12.0 fs
C        0.006993        0.668292        0.005525
H        0.799159        1.291037       -0.047927
H       -0.888775        1.184104        0.076231
C       -0.004206       -0.667610       -0.025702
H       -0.888120       -1.142487        0.050521
H        0.944633       -1.340722        0.161422
6
  Step 13: 13.0 fs
C        0.001798        0.667722        0.004334
H        0.775089        1.295261       -0.033057
H       -0.853612        1.243874        0.060153
C       -0.002411       -0.670500       -0.021723
H       -0.889583       -1.135121        0.043888
H        0.975485       -1.370890        0.136056
6
  Step 14: 14.0 fs
C       -0.004303        0.664381        0.003016
H        0.790224        1.318941       -0.018505
H       -0.843343        1.310885        0.043250
C        0.003639       -0.672668       -0.016908
H       -0.922992       -1.148557        0.038155
H        0.984110       -1.382537        0.102505
6
  Step 15: 15.0 fs
C       -0.010702        0.659895        0.001607
H        0.832654        1.350543       -0.003848
H       -0.850585        1.376447        0.025346
C        0.012318       -0.674853       -0.011383
H       -0.970870       -1.174265        0.032048
H        0.969657       -1.374566        0.062854
6
  Step 16: 16.0 fs
C       -0.016617        0.656439        0.000164
H        0.883867        1.375037        0.010885
H       -0.864233        1.429718        0.006535
C        0.021508       -0.677728       -0.005354
H       -1.013406       -1.202120        0.024696
H        0.935637       -1.349088        0.019666
6
  Step 17: 17.0 fs
C       -0.021493        0.655467       -0.001250
H        0.929677        1.382615        0.025092
H       -0.875580        1.462465       -0.012575
C        0.029256       -0.681266        0.000906
H       -1.037732       -1.225229        0.016030
H        0.891320       -1.312594       -0.024462
6
  Step 18: 18.0 fs
C       -0.024992        0.657503       -0.002579
H        0.961714        1.369246        0.037928
H       -0.879615        1.470423       -0.031045
C        0.033597       -0.684580        0.007155
H       -1.037913       -1.240017        0.006466
H        0.853479       -1.277176       -0.067829
6
  Step 19: 19.0 fs
C       -0.026862        0.662349       -0.003773
H        0.975830        1.334824        0.048545
H       -0.874751        1.453207       -0.047835
C        0.032728       -0.686332        0.013299
H       -1.012995       -1.245297       -0.003358
H        0.842192       -1.257089       -0.110787
6
  Step 20: 20.0 fs
C       -0.026883        0.669265       -0.004778
H        0.971359        1.282200        0.056206
H       -0.862740        1.414245       -0.062026
C        0.026281       -0.685819        0.019291
H       -0.966541       -1.242032       -0.012767
H        0.865219       -1.257228       -0.154221
6
  Step 21: 21.0 fs
C       -0.024860        0.676995       -0.005535
H        0.951612        1.217144        0.060465
H       -0.849385        1.361252       -0.073124
C        0.016128       -0.683375        0.024821
H       -0.907866       -1.234209       -0.021273
H        0.909747       -1.268128       -0.195709
6
  Step 22: 22.0 fs
C       -0.020787        0.683736       -0.005989
H        0.925879        1.148970        0.061437
H       -0.844681        1.305822       -0.081294
C        0.005333       -0.679341        0.029431
H       -0.853412       -1.230234       -0.028959
H        0.956361       -1.276787       -0.230303
6
  Step 23: 23.0 fs
C       -0.015244        0.687515       -0.006110
H        0.910534        1.090061        0.059918
H       -0.859301        1.259760       -0.087201
C       -0.003160       -0.673494        0.032788
H       -0.823159       -1.241755       -0.036658
H        0.991213       -1.274902       -0.253719
6
  Step 24: 24.0 fs
C       -0.009613        0.687141       -0.005937
H        0.923096        1.051816        0.056983
H       -0.896120        1.228631       -0.091137
C       -0.007807       -0.665835        0.034713
H       -0.826740       -1.274901       -0.045019
H        1.007332       -1.259132       -0.263464
6
  Step 25: 25.0 fs
C       -0.005124        0.682977       -0.005540
H        0.966720        1.037964        0.052793
H       -0.945851        1.209944       -0.092375
C       -0.009087       -0.657478        0.035047
H       -0.854108       -1.322016       -0.053109
H        1.002604       -1.229394       -0.258645
6
  Step 26: 26.0 fs
C       -0.001886        0.676528       -0.004947
H        1.025441        1.043821        0.046472
H       -0.993839        1.198166       -0.089810
C       -0.008431       -0.650097        0.033684
H       -0.887272       -1.368436       -0.059060
H        0.978689       -1.188146       -0.239766
6
  Step 27: 27.0 fs
C        0.000566        0.669477       -0.004176
H        1.078538        1.062079        0.037302
H       -1.027889        1.188983       -0.082775
C       -0.007245       -0.644953        0.030699
H       -0.912653       -1.402242       -0.061474
H        0.941707       -1.140702       -0.208863
6
  Step 28: 28.0 fs
C        0.002595        0.663176       -0.003255
H        1.111367        1.086559        0.025276
H       -1.040808        1.180186       -0.071240
C       -0.006942       -0.642497        0.026398
H       -0.923062       -1.416784       -0.059784
H        0.904455       -1.096052       -0.169820
6
  Step 29: 29.0 fs
C        0.004373        0.658519       -0.002225
H        1.116519        1.112798        0.010963
H       -1.030218        1.171446       -0.055735
C       -0.009101       -0.642423        0.021240
H       -0.916015       -1.409743       -0.054072
H        0.886201       -1.066033       -0.127572
6
  Step 30: 30.0 fs
C        0.006047        0.655937       -0.001132
H        1.091973        1.137752       -0.004730
H       -0.998239        1.164061       -0.037220
C       -0.014685       -0.644178        0.015575
H       -0.892829       -1.382366       -0.044878
H        0.902137       -1.059327       -0.085141
6
  Step 31: 31.0 fs
C        0.007849        0.655361       -0.000030
H        1.040354        1.159832       -0.020734
H       -0.951840        1.161062       -0.016909
C       -0.022629       -0.647514        0.009508
H       -0.859513       -1.340111       -0.033111
H        0.947189       -1.074073       -0.042102
6
  Step 32: 32.0 fs
C        0.010046        0.656157        0.001028
H        0.969808        1.179531       -0.036053
H       -0.902927        1.167198        0.004000
C       -0.030081       -0.652061        0.003156
H       -0.828882       -1.294342       -0.019921
H        1.000771       -1.101014        0.002144
6
  Step 33: 33.0 fs
C        0.012596        0.657150        0.001998
H        0.895616        1.200722       -0.050161
H       -0.865976        1.187740        0.024733
C       -0.033860       -0.656767       -0.003223
H       -0.819957       -1.261487       -0.006152
H        1.043716       -1.131392        0.046161
6
  Step 34: 34.0 fs
C        0.014649        0.657049        0.002863
H        0.838674        1.231161       -0.063394
H       -0.850809        1.224627        0.045058
C       -0.031939       -0.660659       -0.009361
H       -0.846427       -1.253052        0.008307
H        1.064655       -1.159599        0.087391
6
  Step 35: 35.0 fs
C        0.014904        0.655366        0.003654
H        0.814659        1.277339       -0.076571
H       -0.856285        1.272735        0.064685
C       -0.024653       -0.664045       -0.015009
H       -0.900991       -1.263973        0.023852
H        1.058933       -1.182618        0.123221
6
  Step 36: 36.0 fs
C        0.012908        0.653085        0.004377
H        0.821421        1.335160       -0.089537
H       -0.873317        1.321748        0.082769
C       -0.013938       -0.668017       -0.019887
H       -0.962352       -1.279694        0.039933
H        1.026746       -1.199264        0.151506
6
  Step 37: 37.0 fs
C        0.009196        0.651995        0.004957
H        0.844310        1.391342       -0.100801
H       -0.891945        1.361324        0.098114
C       -0.001877       -0.673278       -0.023736
H       -1.012158       -1.288744        0.055322
H        0.972890       -1.210343        0.170958
6
  Step 38: 38.0 fs
C        0.004504        0.653469        0.005308
H        0.869307        1.433252       -0.108727
H       -0.905176        1.384249        0.109609
C        0.009613       -0.679685       -0.026429
H       -1.040014       -1.285466        0.068802
H        0.908047       -1.219730        0.181793
6
  Step 39: 39.0 fs
C       -0.000554        0.657994        0.005369
H        0.887601        1.453399       -0.112260
H       -0.909464        1.386907        0.116461
C        0.018559       -0.686243       -0.028051
H       -1.041825       -1.268256        0.079437
H        0.849570       -1.235527        0.186432
6
  Step 40: 40.0 fs
C       -0.005429        0.665263        0.005104
H        0.894799        1.449038       -0.111003
H       -0.904540        1.369086        0.118333
C        0.023211       -0.691459       -0.028845
H       -1.018174       -1.238106        0.086640
H        0.816448       -1.267930        0.188697
6
  Step 41: 41.0 fs
C       -0.009520        0.674392        0.004487
H        0.889720        1.421018       -0.105085
H       -0.893634        1.334008        0.115470
C        0.023207       -0.694245       -0.028908
H       -0.974440       -1.198360        0.090308
H        0.815657       -1.320101        0.190074
6
  Step 42: 42.0 fs
C       -0.012165        0.684022        0.003488
H        0.874335        1.373561       -0.095149
H       -0.883966        1.288447        0.108809
C        0.020229       -0.694433       -0.028055
H       -0.922659       -1.155599        0.091194
H        0.836546       -1.382261        0.187653
6
  Step 43: 43.0 fs
C       -0.012818        0.692381        0.002086
H        0.855027        1.314985       -0.082392
H       -0.886124        1.241825        0.099851
C        0.017153       -0.692095       -0.026139
H       -0.883137       -1.120436        0.091322
H        0.862901       -1.439590        0.177595
6
  Step 44: 44.0 fs
C       -0.011586        0.697624        0.000328
H        0.843681        1.257848       -0.068507
H       -0.908978        1.202340        0.089941
C        0.016698       -0.687127       -0.023239
H       -0.878058       -1.104237        0.093320
H        0.882778       -1.480743        0.158027
6
  Step 45: 45.0 fs
C       -0.009629        0.698519       -0.001649
H        0.854593        1.215706       -0.055072
H       -0.951858        1.172519        0.079389
C        0.019701       -0.679938       -0.019445
H       -0.912179       -1.109869        0.097743
H        0.889814       -1.499394        0.129084
6
  Step 46: 46.0 fs
C       -0.008288        0.695070       -0.003706
H        0.893101        1.195234       -0.042612
H       -1.003531        1.149757        0.067646
C        0.024737       -0.671764       -0.014727
H       -0.967009       -1.129111        0.102260
H        0.881896       -1.493179        0.092167
6
  Step 47: 47.0 fs
C       -0.007831        0.688424       -0.005774
H        0.948069        1.192558       -0.030744
H       -1.049714        1.130523        0.054211
C        0.029772       -0.663927       -0.009107
H       -1.019639       -1.151415        0.104298
H        0.860346       -1.463146        0.049407
6
  Step 48: 48.0 fs
C       -0.007699        0.680086       -0.007808
H        1.001164        1.199291       -0.019281
H       -1.079544        1.112769        0.039151
C        0.033182       -0.657236       -0.002754
H       -1.055007       -1.169563        0.102585
H        0.830287       -1.414362        0.003295
6
  Step 49: 49.0 fs
C       -0.007303        0.671360       -0.009756
H        1.037872        1.208407       -0.008596
H       -1.087098        1.096105        0.023051
C        0.033632       -0.651815        0.004086
H       -1.065916       -1.179803        0.096946
H        0.801975       -1.357214       -0.043894
6
  Step 50: 50.0 fs
C       -0.006241        0.663239       -0.011561
H        1.050176        1.215507        0.000598
H       -1.071283        1.081534        0.006804
C        0.029889       -0.647261        0.011218
H       -1.050332       -1.180741        0.087860
H        0.790200       -1.306335       -0.091192
6
  Step 51: 51.0 fs
C       -0.004210        0.656450       -0.013167
H        1.035509        1.218367        0.007492
H       -1.035635        1.071336       -0.008545
C        0.021369       -0.643320        0.018534
H       -1.010420       -1.172952        0.076201
H        0.806579       -1.272865       -0.139056
6
  Step 52: 52.0 fs
C       -0.000890        0.651431       -0.014525
H        0.995883        1.216600        0.011329
H       -0.988548        1.069155       -0.022006
C        0.009146       -0.640577        0.025792
H       -0.953576       -1.159612        0.063165
H        0.848284       -1.255147       -0.186663
6
  Step 53: 53.0 fs
C        0.003969        0.648177       -0.015589
H        0.938599        1.212143        0.011578
H       -0.942692        1.079774       -0.032857
C       -0.004017       -0.639808        0.032481
H       -0.895216       -1.148351        0.050110
H        0.900231       -1.242988       -0.229976
6
  Step 54: 54.0 fs
C        0.010067        0.646130       -0.016325
H        0.877939        1.210493        0.008101
H       -0.910846        1.107425       -0.040790
C       -0.014697       -0.640916        0.038050
H       -0.858658       -1.151986        0.038056
H        0.947048       -1.227773       -0.264046
6
  Step 55: 55.0 fs
C        0.016001        0.644444       -0.016724
H        0.834267        1.220963        0.001156
H       -0.898618        1.152384       -0.045675
C       -0.020391       -0.643272        0.042139
H       -0.861844       -1.181379        0.027140
H        0.978824       -1.205679       -0.285253
6
  Step 56: 56.0 fs
C        0.019847        0.642758       -0.016799
H        0.823897        1.251226       -0.008981
H       -0.901276        1.208920       -0.047239
C       -0.021118       -0.647020        0.044582
H       -0.898167       -1.232611        0.017208
H        0.991040       -1.176548       -0.291813
6
  Step 57: 57.0 fs
C        0.020766        0.641885       -0.016566
H        0.845225        1.297439       -0.022276
H       -0.908949        1.267796       -0.045120
C       -0.018636       -0.652984        0.045305
H       -0.944626       -1.290271        0.008792
H        0.983358       -1.142569       -0.283602
6
  Step 58: 58.0 fs
C        0.019207        0.643315       -0.016054
H        0.882577        1.345538       -0.038398
H       -0.912860        1.320201       -0.039137
C       -0.014774       -0.661538        0.044360
H       -0.981785       -1.340513        0.002691
H        0.959663       -1.107993       -0.262204
6
  Step 59: 59.0 fs
C        0.015925        0.648065       -0.015316
H        0.920355        1.381872       -0.056438
H       -0.907618        1.359783       -0.029422
C       -0.011125       -0.672149        0.041987
H       -0.998918       -1.375277       -0.000536
H        0.929418       -1.079353       -0.231186
6
  Step 60: 60.0 fs
C        0.011547        0.656229       -0.014409
H        0.948659        1.398186       -0.075210
H       -0.891415        1.383174       -0.016410
C       -0.009291       -0.683529        0.038599
H       -0.991780       -1.391114       -0.000637
H        0.908060       -1.064930       -0.195785
6
  Step 61: 61.0 fs
C        0.006633        0.667126       -0.013393
H        0.962639        1.391150       -0.093524
H       -0.865812        1.390056       -0.000756
C       -0.010564       -0.694129        0.034598
H       -0.960692       -1.387848        0.002407
H        0.911071       -1.071569       -0.160635
6
  Step 62: 62.0 fs
C        0.001817        0.679506       -0.012334
H        0.961002        1.361000       -0.110331
H       -0.835951        1.383516        0.016823
C       -0.014823       -0.702707        0.030115
H       -0.910789       -1.368657        0.008433
H        0.941002       -1.099339       -0.126647
6
  Step 63: 63.0 fs
C       -0.002184        0.691684       -0.011305
H        0.945816        1.311096       -0.124910
H       -0.810579        1.370186        0.035768
C       -0.020060       -0.708366        0.025074
H       -0.854142       -1.341709        0.017136
H        0.984167       -1.140672       -0.091958
6
  Step 64: 64.0 fs
C       -0.004814        0.701704       -0.010363
H        0.923412        1.248170       -0.137187
H       -0.800380        1.358989        0.055943
C       -0.023286       -0.710077        0.019467
H       -0.810915       -1.321479        0.028320
H        1.022876       -1.185697       -0.055490
6
  Step 65: 65.0 fs
C       -0.006271        0.707786       -0.009505
H        0.905533        1.182436       -0.148136
H       -0.812223        1.356400        0.077397
C       -0.021969       -0.706856        0.013400
H       -0.801467       -1.323220        0.042378
H        1.044831       -1.226404       -0.018039
6
  Step 66: 66.0 fs
C       -0.007784        0.708959       -0.008609
H        0.906904        1.125365       -0.159631
H       -0.843395        1.361907        0.099574
C       -0.015739       -0.699007        0.007070
H       -0.827381       -1.348021        0.059828
H        1.044391       -1.257463        0.018527
6
  Step 67: 67.0 fs
C       -0.010657        0.705419       -0.007523
H        0.935276        1.084159       -0.172902
H       -0.883073        1.369290        0.120847
C       -0.006350       -0.688318        0.000816
H       -0.870222       -1.380984        0.079847
H        1.020953       -1.275793        0.052051
6
  Step 68: 68.0 fs
C       -0.014981        0.698308       -0.006268
H        0.982677        1.058678       -0.186679
H       -0.919189        1.371610        0.139130
C        0.004022       -0.676748       -0.004941
H       -0.910525       -1.406179        0.100446
H        0.977977       -1.280518        0.080539
6
  Step 69: 69.0 fs
C       -0.019844        0.689060       -0.005020
H        1.032125        1.045152       -0.197990
H       -0.943132        1.364305        0.152629
C        0.013551       -0.665668       -0.009832
H       -0.936745       -1.414054        0.119609
H        0.923142       -1.273622        0.102570
6
  Step 70: 70.0 fs
C       -0.024220        0.678960       -0.003976
H        1.068779        1.040194       -0.204160
H       -0.950529        1.345571        0.160200
C        0.020632       -0.655770       -0.013628
H       -0.944092       -1.400617        0.135770
H        0.869019       -1.260957        0.117774
6
  Step 71: 71.0 fs
C       -0.027295        0.669029       -0.003288
H        1.083780        1.041718       -0.203610
H       -0.941150        1.316296        0.161460
C        0.023797       -0.647214       -0.016265
H       -0.932181       -1.365549        0.147880
H        0.831665       -1.251899        0.127060
6
  Step 72: 72.0 fs
C       -0.028405        0.660027       -0.003077
H        1.073659        1.048647       -0.195834
H       -0.918926        1.280061        0.156890
C        0.022216       -0.640072       -0.017768
H       -0.904096       -1.311487        0.155467
H        0.823532       -1.254497        0.131663
6
  Step 73: 73.0 fs
C       -0.026910        0.652439       -0.003458
H        1.039233        1.060653       -0.181212
H       -0.892112        1.243164        0.147914
C        0.016510       -0.634838       -0.018123
H       -0.867311       -1.244753        0.159001
H        0.844503       -1.268316        0.131233
6
  Step 74: 74.0 fs
C       -0.022289        0.646434       -0.004517
H        0.985910        1.078395       -0.161045
H       -0.872374        1.213721        0.136693
C        0.008883       -0.632129       -0.017335
H       -0.836167       -1.177125        0.160632
H        0.882730       -1.284993        0.123890
6
  Step 75: 75.0 fs
C       -0.014653        0.641936       -0.006230
H        0.924965        1.104339       -0.137648
H       -0.870014        1.198161        0.125192
C        0.002376       -0.631987       -0.015628
H       -0.831824       -1.125069        0.164490
H        0.923536       -1.295575        0.108205
6
  Step 76: 76.0 fs
C       -0.005320        0.638850       -0.008386
H        0.873247        1.143547       -0.114049
H       -0.887219        1.196800        0.114049
C       -0.000705       -0.634241       -0.013294
H       -0.869204       -1.100011        0.173885
H        0.955414       -1.294892        0.084229
6
  Step 77: 77.0 fs
C        0.003670        0.637247       -0.010686
H        0.845914        1.201349       -0.092675
H       -0.916860        1.203754        0.102594
C       -0.000434       -0.639349       -0.010326
H       -0.938533       -1.098001        0.186995
H        0.971449       -1.281741        0.053246
6
  Step 78: 78.0 fs
C        0.011050        0.637575       -0.012951
H        0.844449        1.276136       -0.074019
H       -0.948331        1.211449        0.089944
C        0.001518       -0.647809       -0.006535
H       -1.014591       -1.107246        0.198798
H        0.969338       -1.258145        0.017281
6
  Step 79: 79.0 fs
C        0.016776        0.640582       -0.015117
H        0.856918        1.356671       -0.057476
H       -0.972771        1.214179        0.075717
C        0.003484       -0.659286       -0.001868
H       -1.076362       -1.118809        0.205377
H        0.951498       -1.228990       -0.021403
6
  Step 80: 80.0 fs
C        0.021227        0.646709       -0.017129
H        0.869804        1.429209       -0.042744
H       -0.984765        1.209036        0.060119
C        0.004133       -0.672566        0.003573
H       -1.111926       -1.128166        0.204869
H        0.925457       -1.201856       -0.060858
6
  Step 81: 81.0 fs
C        0.024702        0.655738       -0.018916
H        0.874537        1.483559       -0.030111
H       -0.982457        1.195655        0.043824
C        0.002318       -0.685921        0.009641
H       -1.116175       -1.133593        0.196825
H        0.902904       -1.185885       -0.100128
6
  Step 82: 82.0 fs
C        0.027445        0.666891       -0.020404
H        0.867498        1.514185       -0.020095
H       -0.967681        1.175903        0.027819
C       -0.002616       -0.697671        0.016192
H       -1.089041       -1.135077        0.181715
H        0.894128       -1.188164       -0.139307
6
  Step 83: 83.0 fs
C        0.029784        0.679022       -0.021538
H        0.848629        1.519425       -0.013214
H       -0.946176        1.153648        0.013234
C       -0.010140       -0.706661        0.022976
H       -1.035959       -1.134290        0.160866
H        0.900151       -1.209326       -0.178031
6
  Step 84: 84.0 fs
C        0.032110        0.690730       -0.022275
H        0.821066        1.501283       -0.009839
H       -0.927118        1.134150        0.001106
C       -0.018255       -0.712228        0.029503
H       -0.970505       -1.135662        0.136646
H        0.912148       -1.243431       -0.213996
6
  Step 85: 85.0 fs
C        0.034567        0.700433       -0.022587
H        0.791905        1.466203       -0.010094
H       -0.920399        1.122532       -0.007853
C       -0.023958       -0.713740        0.035128
H       -0.916335       -1.147767        0.112260
H        0.919069       -1.282156       -0.243657
6
  Step 86: 86.0 fs
C        0.036529        0.706521       -0.022446
H        0.772880        1.425763       -0.013830
H       -0.931046        1.121404       -0.013378
C       -0.024525       -0.710565        0.039323
H       -0.897939       -1.180320        0.090113
H        0.913745       -1.318327       -0.263882
6
  Step 87: 87.0 fs
C        0.036535        0.707728       -0.021838
H        0.777759        1.393923       -0.020774
H       -0.955500        1.129706       -0.015500
C       -0.019603       -0.702991        0.041897
H       -0.917301       -1.232761        0.070207
H        0.894013       -1.346892       -0.272794
6
  Step 88: 88.0 fs
C        0.033329        0.703848       -0.020756
H        0.812829        1.377710       -0.030775
H       -0.984216        1.144045       -0.014368
C       -0.011211       -0.692518        0.042861
H       -0.953284       -1.291242        0.051832
H        0.861894       -1.365030       -0.269910
6
  Step 89: 89.0 fs
C        0.026970        0.696088       -0.019220
H        0.869149        1.371039       -0.043618
H       -1.007128        1.160673       -0.010203
C       -0.001694       -0.680843        0.042284
H       -0.984927       -1.340579        0.035265
H        0.822533       -1.372267       -0.256083
6
  Step 90: 90.0 fs
C        0.018500        0.686289       -0.017307
H        0.929598        1.362315       -0.058596
H       -1.017162        1.176624       -0.003325
C        0.007134       -0.669202        0.040322
H       -1.000847       -1.371108        0.021322
H        0.783776       -1.370887       -0.233458
6
  Step 91: 91.0 fs
C        0.009105        0.676109       -0.015133
H        0.979364        1.343123       -0.074575
H       -1.010987        1.190008        0.005817
C        0.013902       -0.658361        0.037227
H       -0.996971       -1.378233        0.010776
H        0.755254       -1.365823       -0.205112
6
  Step 92: 92.0 fs
C       -0.000189        0.666781       -0.012827
H        1.009407        1.310042       -0.090329
H       -0.989093        1.200279        0.016697
C        0.017630       -0.648828        0.033278
H       -0.973479       -1.360820        0.004181
H        0.746108       -1.362859       -0.174075
6
  Step 93: 93.0 fs
C       -0.008455        0.659138       -0.010520
H        1.015759        1.263369       -0.104741