6
  Step 0: 0.0 fs
C        0.000001        0.665093        0.000001
H        0.925307        1.240819       -0.000009
H       -0.925304        1.240806        0.000002
C       -0.000002       -0.665092       -0.000001
H       -0.925301       -1.240820       -0.000001
H        0.925312       -1.240813        0.000011
6
  Step 1: 1.0 fs
C        0.003824        0.678643        0.006275
H        0.931832        1.224187       -0.013803
H       -0.944603        1.244882       -0.041145
C       -0.011067       -0.668239       -0.000880
H       -0.915214       -1.295590        0.009028
H        1.014230       -1.297353       -0.018314
6
  Step 2: 2.0 fs
C        0.006847        0.691139        0.012304
H        0.941191        1.210677       -0.027224
H       -0.958763        1.247658       -0.080581
C       -0.020273       -0.672057       -0.001739
H       -0.902863       -1.346298        0.017647
H        1.080301       -1.339232       -0.035639
6
  Step 3: 3.0 fs
C        0.008519        0.701697        0.017854
H        0.954823        1.202173       -0.040040
H       -0.964062        1.248478       -0.116553
C       -0.026917       -0.676543       -0.002565
H       -0.886617       -1.389271        0.025484
H        1.114928       -1.360873       -0.050932
6
  Step 4: 4.0 fs
C        0.008698        0.709666        0.022705
H        0.971525        1.198725       -0.051985
H       -0.958907        1.247578       -0.147520
C       -0.030703       -0.681442       -0.003335
H       -0.866202       -1.421828        0.032232
H        1.115619       -1.360515       -0.063354
6
  Step 5: 5.0 fs
C        0.007654        0.714617        0.026672
H        0.987754        1.198838       -0.062647
H       -0.944122        1.246121       -0.172390
C       -0.031452       -0.686413       -0.004032
H       -0.843011       -1.442664        0.037692
H        1.082769       -1.338094       -0.072224
6
  Step 6: 6.0 fs
C        0.005928        0.716270        0.029620
H        0.999232        1.200387       -0.071492
H       -0.922805        1.246057       -0.190669
C       -0.029093       -0.691020       -0.004643
H       -0.820079       -1.452003        0.041789
H        1.019513       -1.295064       -0.077029
6
  Step 7: 7.0 fs
C        0.004138        0.714437        0.031475
H        1.002688        1.201490       -0.077993
H       -0.899753        1.249832       -0.202454
C       -0.023946       -0.694607       -0.005141
H       -0.801649       -1.451411        0.044571
H        0.934607       -1.235987       -0.077677
6
  Step 8: 8.0 fs
C        0.002780        0.709041        0.032215
H        0.996875        1.200951       -0.081776
H       -0.879999        1.259618       -0.208165
C       -0.017428       -0.696000       -0.005431
H       -0.792172       -1.443192        0.046174
H        0.849757       -1.172632       -0.075138
6
  Step 9: 9.0 fs
C        0.002043        0.700217        0.031833
H        0.982875        1.198434       -0.082686
H       -0.866833        1.276172       -0.208001
C       -0.012869       -0.693245       -0.005270
H       -0.794607       -1.429372        0.046712
H        0.807520       -1.128214       -0.072297
6
  Step 10: 10.0 fs
C        0.001710        0.688450        0.030308
H        0.963852        1.194445       -0.080795
H       -0.860509        1.298000       -0.201569
C       -0.013433       -0.684957       -0.004420
H       -0.809067       -1.410980        0.046167
H        0.845372       -1.123009       -0.072042
6
  Step 11: 11.0 fs
C        0.001254        0.674684        0.027620
H        0.944301        1.190176       -0.076361
H       -0.858684        1.321529       -0.188089
C       -0.017340       -0.672829       -0.003046
H       -0.832999       -1.388151        0.044402
H        0.938983       -1.145593       -0.072547
6
  Step 12: 12.0 fs
C        0.000119        0.660240        0.023793
H        0.928798        1.187085       -0.069728
H       -0.858153        1.342224       -0.167012
C       -0.020997       -0.659825       -0.001444
H       -0.862043       -1.360514        0.041251
H        1.040056       -1.173684       -0.070608
6
  Step 13: 13.0 fs
C       -0.001997        0.646653        0.018915
H        0.920388        1.186136       -0.061203
H       -0.856470        1.356003       -0.138495
C       -0.022569       -0.648274        0.000233
H       -0.891308       -1.327817        0.036654
H        1.119976       -1.194976       -0.064943
6
  Step 14: 14.0 fs
C       -0.005029        0.635538        0.013144
H        0.919512        1.187160       -0.051012
H       -0.852605        1.360146       -0.103477
C       -0.021572       -0.639890        0.001917
H       -0.916735       -1.290604        0.030730
H        1.166638       -1.204831       -0.055566
6
  Step 15: 15.0 fs
C       -0.008580        0.628314        0.006690
H        0.924228        1.188916       -0.039407
H       -0.847176        1.353853       -0.063531
C       -0.018009       -0.635891        0.003570
H       -0.935852       -1.250547        0.023779
H        1.175482       -1.201952       -0.042998
6
  Step 16: 16.0 fs
C       -0.012060        0.625851       -0.000198
H        0.931430        1.189811       -0.026795
H       -0.842383        1.338394       -0.020583
C       -0.011994       -0.636864        0.005162
H       -0.948067       -1.210380        0.016250
H        1.145516       -1.186638       -0.027967
6
  Step 17: 17.0 fs
C       -0.014825        0.628202       -0.007249
H        0.938151        1.188743       -0.013788
H       -0.841730        1.316939        0.023427
C       -0.003718       -0.642593        0.006666
H       -0.954514       -1.173528        0.008680
H        1.078992       -1.160738       -0.011362
6
  Step 18: 18.0 fs
C       -0.016315        0.634603       -0.014203
H        0.942404        1.185628       -0.001109
H       -0.849088        1.293633        0.066864
C        0.006194       -0.651950        0.008060
H       -0.957370       -1.143427        0.001629
H        0.984673       -1.129217        0.005754
6
  Step 19: 19.0 fs
C       -0.016214        0.643779       -0.020821
H        0.943511        1.181510        0.010562
H       -0.866792        1.271850        0.108450
C        0.015846       -0.662775        0.009319
H       -0.958775       -1.122733       -0.004378
H        0.886561       -1.104383        0.022324
6
  Step 20: 20.0 fs
C       -0.014590        0.654366       -0.026880
H        0.942078        1.178373        0.020717
H       -0.893741        1.252559        0.146910
C        0.021286       -0.671797        0.010339
H       -0.960045       -1.112849       -0.008894
H        0.832105       -1.110456        0.038216
6
  Step 21: 21.0 fs
C       -0.011887        0.665227       -0.032141
H        0.939635        1.178664        0.029086
H       -0.925210        1.234516        0.180517
C        0.019516       -0.676331        0.010925
H       -0.961977       -1.114063       -0.011592
H        0.856854       -1.166816        0.054616
6
  Step 22: 22.0 fs
C       -0.008748        0.675567       -0.036376
H        0.937941        1.184610        0.035595
H       -0.954860        1.215873        0.207259
C        0.013322       -0.677194        0.011077
H       -0.965397       -1.125952       -0.012293
H        0.927993       -1.255063        0.070676
6
  Step 23: 23.0 fs
C       -0.005755        0.684793       -0.039395
H        0.938066        1.197503        0.040231
H       -0.977122        1.195574        0.225382
C        0.006609       -0.676439        0.010969
H       -0.970004       -1.147152       -0.010932
H        0.999039       -1.345305        0.083789
6
  Step 24: 24.0 fs
C       -0.003245        0.692435       -0.041073
H        0.939624        1.217234        0.042925
H       -0.988637        1.173808        0.233822
C        0.001225       -0.675286        0.010715
H       -0.973702       -1.175122       -0.007526
H        1.046918       -1.420020        0.092248
6
  Step 25: 25.0 fs
C       -0.001248        0.698134       -0.041365
H        0.940740        1.242296        0.043499
H       -0.988744        1.151934        0.232384
C       -0.002289       -0.674327        0.010369
H       -0.973489       -1.206408       -0.002180
H        1.063766       -1.471194        0.095360
6
  Step 26: 26.0 fs
C        0.000473        0.701622       -0.040307
H        0.938809        1.270230        0.041713
H       -0.979613        1.132263        0.221770
C       -0.003855       -0.673897        0.009960
H       -0.966866       -1.237267        0.004907
H        1.048098       -1.495240        0.092950
6
  Step 27: 27.0 fs
C        0.002326        0.702686       -0.038020
H        0.931605        1.298301        0.037381
H       -0.965994        1.117767        0.203445
C       -0.003497       -0.674219        0.009517
H       -0.952857       -1.264257        0.013439
H        1.001355       -1.490647        0.085120
6
  Step 28: 28.0 fs
C        0.004751        0.701158       -0.034679
H        0.918100        1.324109        0.030454
H       -0.954160        1.111494        0.179253
C       -0.001296       -0.675372        0.009065
H       -0.932554       -1.284746        0.023060
H        0.927656       -1.457775        0.072215
6
  Step 29: 29.0 fs
C        0.007998        0.696968       -0.030465
H        0.898851        1.345961        0.021047
H       -0.949511        1.115522        0.150791
C        0.002392       -0.677080        0.008612
H       -0.909217       -1.297200        0.033395
H        0.836354       -1.400964        0.054976
6
  Step 30: 30.0 fs
C        0.011894        0.690236       -0.025519
H        0.876000        1.363076        0.009410
H       -0.953580        1.129663        0.118894
C        0.006349       -0.678218        0.008119
H       -0.887868       -1.301339        0.044106
H        0.748413       -1.334384        0.034775
6
  Step 31: 31.0 fs
C        0.015810        0.681352       -0.019952
H        0.852824        1.375511       -0.004142
H       -0.963148        1.151074        0.083896
C        0.007802       -0.676244        0.007523
H       -0.873955       -1.298019        0.054975
H        0.703338       -1.289261        0.013273
6
  Step 32: 32.0 fs
C        0.018899        0.671044       -0.013902
H        0.832858        1.383702       -0.019301
H       -0.972348        1.175200        0.046409
C        0.004189       -0.668965        0.006888
H       -0.871391       -1.288782        0.065896
H        0.736179       -1.294752       -0.009475
6
  Step 33: 33.0 fs
C        0.020439        0.660441       -0.007574
H        0.818948        1.387821       -0.035749
H       -0.975786        1.197426        0.007781
C       -0.002586       -0.658490        0.006341
H       -0.881037       -1.275204        0.076724
H        0.825510       -1.333144       -0.034070
6
  Step 34: 34.0 fs
C        0.020056        0.650913       -0.001228
H        0.812602        1.387353       -0.053084
H       -0.970338        1.214174       -0.030090
C       -0.009035       -0.648573        0.005836
H       -0.900329       -1.258348        0.087090
H        0.927051       -1.370899       -0.058770
6
  Step 35: 35.0 fs
C        0.017781        0.643773        0.004847
H        0.813974        1.381194       -0.070732
H       -0.955557        1.223416       -0.065164
C       -0.013362       -0.641664        0.005299
H       -0.924482       -1.238712        0.096394
H        1.013675       -1.390872       -0.081299
6
  Step 36: 36.0 fs
C        0.013965        0.639999        0.010376
H        0.822343        1.368173       -0.087948
H       -0.933577        1.224937       -0.095611
C       -0.015068       -0.639030        0.004708
H       -0.948364       -1.216687        0.103940
H        1.072959       -1.387821       -0.099972
6
  Step 37: 37.0 fs
C        0.009183        0.639968        0.015123
H        0.836638        1.347645       -0.103924
H       -0.908850        1.220523       -0.120133
C       -0.014145       -0.641099        0.004074
H       -0.967856       -1.193109        0.109122
H        1.099373       -1.361441       -0.113634
6
  Step 38: 38.0 fs
C        0.004157        0.643343        0.018931
H        0.855721        1.319837       -0.117916
H       -0.887687        1.213841       -0.138187
C       -0.010704       -0.647574        0.003414
H       -0.980504       -1.169529        0.111541
H        1.090668       -1.313617       -0.121481
6
  Step 39: 39.0 fs
C       -0.000364        0.649176        0.021723
H        0.878402        1.285927       -0.129346
H       -0.876879        1.209632       -0.149972
C       -0.004944       -0.657497        0.002745
H       -0.985569       -1.148164        0.111060
H        1.047492       -1.248169       -0.123058
6
  Step 40: 40.0 fs
C       -0.003826        0.656254        0.023467
H        0.903337        1.247887       -0.137858
H       -0.880804        1.211727       -0.155952
C        0.002579       -0.669305        0.002123
H       -0.983741       -1.131627        0.107798
H        0.976318       -1.172442       -0.118665
6
  Step 41: 41.0 fs
C       -0.006096        0.663492        0.024127
H        0.928948        1.208200       -0.143309
H       -0.898592        1.221046       -0.156152
C        0.010200       -0.680757        0.001728
H       -0.976607       -1.122548        0.102075
H        0.897642       -1.100963       -0.110458
6
  Step 42: 42.0 fs
C       -0.007458        0.670123        0.023644
H        0.953472        1.169542       -0.145712
H       -0.924131        1.235385       -0.149985
C        0.014272       -0.688886        0.001988
H       -0.966178       -1.123229        0.094342
H        0.855961       -1.058127       -0.103827
6
  Step 43: 43.0 fs
C       -0.008378        0.675696        0.021979
H        0.975081        1.134485       -0.145162
H       -0.949062        1.251098       -0.136812
C        0.011439       -0.691394        0.003285
H       -0.954984       -1.135496        0.085153
H        0.892783       -1.063004       -0.103984
6
  Step 44: 44.0 fs
C       -0.009252        0.679994        0.019159
H        0.992040        1.105248       -0.141773
H       -0.966112        1.264975       -0.116576
C        0.004061       -0.688925        0.005287
H       -0.946160       -1.160599        0.075142
H        0.982313       -1.103122       -0.107853
6
  Step 45: 45.0 fs
C       -0.010280        0.682903        0.015290
H        1.002961        1.083586       -0.135675
H       -0.970827        1.275079       -0.089951
C       -0.003573       -0.683329        0.007439
H       -0.941167       -1.198215        0.064807
H        1.074253       -1.155202       -0.109800
6
  Step 46: 46.0 fs
C       -0.011473        0.684340        0.010544
H        1.007172        1.070744       -0.127070
H       -0.961934        1.280904       -0.058172
C       -0.009348       -0.676073        0.009454
H       -0.937681       -1.245314        0.054396
H        1.140635       -1.204586       -0.107248
6
  Step 47: 47.0 fs
C       -0.012687        0.684254        0.005138
H        1.004946        1.067436       -0.116273
H       -0.941318        1.283429       -0.022785
C       -0.012816       -0.668346        0.011216
H       -0.930724       -1.296387        0.044080
H        1.171057       -1.243706       -0.099723
6
  Step 48: 48.0 fs
C       -0.013658        0.682624       -0.000691
H        0.997492        1.073849       -0.103715
H       -0.913691        1.285043        0.014659
C       -0.014131       -0.661243        0.012661
H       -0.915559       -1.344943        0.034150
H        1.162928       -1.268345       -0.087611
6
  Step 49: 49.0 fs
C       -0.014046        0.679471       -0.006718
H        0.986668        1.089609       -0.089916
H       -0.885655        1.289072        0.052908
C       -0.013520       -0.655736        0.013740
H       -0.889817       -1.385144        0.025077
H        1.117330       -1.275948       -0.071665
6
  Step 50: 50.0 fs
C       -0.013576        0.674943       -0.012747
H        0.974441        1.113679       -0.075422
H       -0.863471        1.298380        0.091095
C       -0.011187       -0.652570        0.014412
H       -0.854286       -1.412861        0.017431
H        1.038478       -1.265393       -0.052914
6
  Step 51: 51.0 fs
C       -0.012217        0.669446       -0.018589
H        0.962327        1.144217       -0.060796
H       -0.850250        1.313391        0.128400
C       -0.007510       -0.652031        0.014676
H       -0.813108       -1.426373        0.011795
H        0.936236       -1.238399       -0.032792
6
  Step 52: 52.0 fs
C       -0.010216        0.663667       -0.024020
H        0.950951        1.178600       -0.046592
H       -0.844959        1.331243        0.163471
C       -0.003611       -0.653504        0.014596
H       -0.773627       -1.426818        0.008641
H        0.832589       -1.203830       -0.013293
6
  Step 53: 53.0 fs
C       -0.007943        0.658428       -0.028774
H        0.940029        1.213586       -0.033349
H       -0.844072        1.346963        0.194239
C       -0.002040       -0.654937        0.014288
H       -0.745403       -1.418151        0.008244
H        0.768644       -1.183754        0.003371
6
  Step 54: 54.0 fs
C       -0.005708        0.654537       -0.032579
H        0.928792        1.245729       -0.021640
H       -0.844102        1.355694        0.218427
C       -0.005231       -0.653977        0.013784
H       -0.737600       -1.405882        0.010638
H        0.783503       -1.201992        0.016380
6
  Step 55: 55.0 fs
C       -0.003693        0.652719       -0.035223
H        0.916669        1.271999       -0.012054
H       -0.843133        1.354325        0.234252
C       -0.011392       -0.651362        0.013034
H       -0.754887       -1.394090        0.015727
H        0.861310       -1.248177        0.026290
6
  Step 56: 56.0 fs
C       -0.001958        0.653431       -0.036580
H        0.903816        1.290361       -0.005159
H       -0.841127        1.341963        0.240829
C       -0.016951       -0.649614        0.012059
H       -0.794565       -1.382797        0.023349
H        0.957381       -1.294760        0.032960
6
  Step 57: 57.0 fs
C       -0.000469        0.656640       -0.036627
H        0.891400        1.300204       -0.001395
H       -0.839867        1.319921        0.238317
C       -0.020115       -0.650385        0.010916
H       -0.847843       -1.368358        0.033211
H        1.041759       -1.326031        0.036013
6
  Step 58: 58.0 fs
C        0.000871        0.661772       -0.035440
H        0.881521        1.302443       -0.000983
H       -0.842642        1.291406        0.227827
C       -0.020568       -0.654247        0.009658
H       -0.903923       -1.346420        0.044797
H        1.099940       -1.336803        0.035366
6
  Step 59: 59.0 fs
C        0.002185        0.667836       -0.033174
H        0.876744        1.299245       -0.003876
H       -0.853521        1.260803        0.211075
C       -0.018524       -0.661016        0.008333
H       -0.953513       -1.314470        0.057407
H        1.125206       -1.326555        0.031182
6
  Step 60: 60.0 fs
C        0.003549        0.673706       -0.030004
H        0.879173        1.293331       -0.009802
H       -0.875600        1.232247        0.189738
C       -0.014286       -0.670013        0.006992
H       -0.990107       -1.272460        0.070279
H        1.114758       -1.296856        0.023798
6
  Step 61: 61.0 fs
C        0.004894        0.678447       -0.026074
H        0.889324        1.287027       -0.018343
H       -0.908608        1.207963        0.164748
C       -0.008161       -0.680222        0.005683
H       -1.010375       -1.222646        0.082719
H        1.068941       -1.250975        0.013690
6
  Step 62: 62.0 fs
C        0.005985        0.681503       -0.021485
H        0.905432        1.281533       -0.029020
H       -0.947890        1.187849        0.136293
C       -0.000667       -0.690312        0.004442
H       -1.014106       -1.169081        0.094199
H        0.993637       -1.195181        0.001477
6
  Step 63: 63.0 fs
C        0.006538        0.682673       -0.016348
H        0.923729        1.276820       -0.041317
H       -0.985938        1.170526        0.104485
C        0.006874       -0.698466        0.003298
H       -1.004242       -1.117083        0.104455
H        0.907161       -1.141969       -0.012223
6
  Step 64: 64.0 fs
C        0.006384        0.681978       -0.010830
H        0.939611        1.272135       -0.054687
H       -1.015411        1.154684        0.069938
C        0.011558       -0.702157        0.002319
H       -0.986755       -1.072626        0.113577
H        0.849324       -1.113680       -0.027473
6
  Step 65: 65.0 fs
C        0.005535        0.679574       -0.005153
H        0.948999        1.266657       -0.068573
H       -1.031208        1.139791        0.033907
C        0.010509       -0.699080        0.001649
H       -0.970345       -1.041640        0.122059
H        0.861929       -1.132306       -0.045655
6
  Step 66: 66.0 fs
C        0.004147        0.675746        0.000422
H        0.949326        1.259981       -0.082441
H       -1.031327        1.126270       -0.001926
C        0.005751       -0.689756        0.001286
H       -0.964408       -1.029032        0.130652
H        0.928972       -1.190148       -0.066610
6
  Step 67: 67.0 fs
C        0.002477        0.670879        0.005639
H        0.940065        1.252352       -0.095830
H       -1.017104        1.115420       -0.035837
C        0.001520       -0.676715        0.001024
H       -0.973467       -1.036965        0.139653
H        1.003345       -1.261060       -0.087304
6
  Step 68: 68.0 fs
C        0.000837        0.665418        0.010275
H        0.922928        1.244784       -0.108401
H       -0.992958        1.109207       -0.066359
C       -0.000282       -0.662436        0.000774
H       -0.992587       -1.063211        0.148146
H        1.056437       -1.326031       -0.104925
6
  Step 69: 69.0 fs
C       -0.000461        0.659840        0.014174
H        0.901708        1.239029       -0.120006
H       -0.965762        1.110031       -0.092493
C        0.000280       -0.649088        0.000611
H       -1.010791       -1.101855        0.154315
H        1.077433       -1.374951       -0.117837
6
  Step 70: 70.0 fs
C       -0.001200        0.654652        0.017258
H        0.881526        1.237223       -0.130711
H       -0.943004        1.120089       -0.113731
C        0.002531       -0.638596        0.000651
H       -1.017790       -1.145689        0.156420
H        1.063860       -1.402537       -0.125198
6
  Step 71: 71.0 fs
C       -0.001378        0.650435        0.019484
H        0.867283        1.241089       -0.140638
H       -0.929762        1.140165       -0.129738
C        0.005855       -0.632522        0.000974
H       -1.007496       -1.188181        0.153433
H        1.017118       -1.406087       -0.126622
6
  Step 72: 72.0 fs
C       -0.001222        0.647827        0.020780
H        0.861824        1.250906       -0.149693
H       -0.926544        1.168613       -0.139855
C        0.009784       -0.631843        0.001608
H       -0.978530       -1.224405        0.145156
H        0.941753       -1.385153       -0.122154
6
  Step 73: 73.0 fs
C       -0.001053        0.647408        0.021022
H        0.864929        1.264944       -0.157379
H       -0.929765        1.201496       -0.143027
C        0.013777       -0.636595        0.002564
H       -0.933998       -1.251499        0.132195
H        0.847784       -1.343412       -0.112601
6
  Step 74: 74.0 fs
C       -0.001111        0.649478        0.020074
H        0.873854        1.279938       -0.162864
H       -0.934233        1.233908       -0.138243
C        0.016694       -0.645293        0.003915
H       -0.881634       -1.269257        0.115947
H        0.756930       -1.294130       -0.100451
6
  Step 75: 75.0 fs
C       -0.001473        0.653919        0.017855
H        0.884856        1.292238       -0.165263
H       -0.935577        1.261531       -0.125076
C        0.016239       -0.654441        0.005898
H       -0.833432       -1.280732        0.098393
H        0.708808       -1.266528       -0.090852
6
  Step 76: 76.0 fs
C       -0.002083        0.660309        0.014381
H        0.894680        1.298899       -0.163934
H       -0.931426        1.281612       -0.103906
C        0.010706       -0.660422        0.008684
H       -0.803388       -1.291998        0.081611
H        0.737939       -1.286869       -0.088375
6
  Step 77: 77.0 fs
C       -0.002816        0.668113        0.009776
H        0.901411        1.298310       -0.158648
H       -0.921678        1.293345       -0.075855
C        0.002565       -0.663523        0.011884
H       -0.801264       -1.308969        0.066953
H        0.825003       -1.337042       -0.090325
6
  Step 78: 78.0 fs
C       -0.003507        0.676642        0.004256
H        0.904790        1.290417       -0.149648
H       -0.908428        1.297823       -0.042530
C       -0.004692       -0.665870        0.014995
H       -0.825861       -1.332164        0.054604
H        0.927617       -1.384029       -0.091618
6
  Step 79: 79.0 fs
C       -0.003974        0.684992       -0.001906
H        0.906229        1.276685       -0.137621
H       -0.895488        1.297658       -0.005664
C       -0.009682       -0.668836        0.017768
H       -0.866000       -1.355692        0.044173
H        1.018357       -1.410710       -0.089727
6
  Step 80: 80.0 fs
C       -0.004088        0.692146       -0.008424
H        0.908455        1.259704       -0.123546
H       -0.887214        1.296149        0.033230
C       -0.012415       -0.672980        0.020094
H       -0.908051       -1.371892        0.035403
H        1.083809       -1.411864       -0.084018
6
  Step 81: 81.0 fs
C       -0.003877        0.697190       -0.015027
H        0.914579        1.242474       -0.108458
H       -0.886488        1.295880        0.072945
C       -0.013225       -0.678315        0.021901
H       -0.941525       -1.375468        0.028369
H        1.117580       -1.387312       -0.074670
6
  Step 82: 82.0 fs
C       -0.003542        0.699529       -0.021466
H        0.926530        1.227350       -0.093152
H       -0.893016        1.297496        0.112281
C       -0.012378       -0.684510        0.023131
H       -0.960191       -1.364285        0.023283
H        1.116751       -1.339070       -0.062208
6
  Step 83: 83.0 fs
C       -0.003349        0.698988       -0.027491
H        0.943739        1.215277       -0.078091
H       -0.903302        1.299625        0.149690
C       -0.010022       -0.690978        0.023746
H       -0.961842       -1.339129        0.020394
H        1.081130       -1.270819       -0.047376
6
  Step 84: 84.0 fs
C       -0.003483        0.695737       -0.032835
H        0.963046        1.205755       -0.063530
H       -0.912381        1.299965        0.183172
C       -0.006372       -0.696827        0.023740
H       -0.948088       -1.303382        0.019901
H        1.015295       -1.189032       -0.031228
6
  Step 85: 85.0 fs
C       -0.003979        0.690147       -0.037239
H        0.979980        1.197484       -0.049724
H       -0.915946        1.296544        0.210644
C       -0.002214       -0.700650        0.023175
H       -0.924679       -1.262992        0.021921
H        0.934918       -1.105646       -0.015357
6
  Step 86: 86.0 fs
C       -0.004756        0.682673       -0.040481
H        0.990482        1.189153       -0.037032
H       -0.911602        1.288427        0.230382
C        0.000236       -0.700328        0.022177
H       -0.901368       -1.226085        0.026523
H        0.876842       -1.040951       -0.001901
6
  Step 87: 87.0 fs
C       -0.005660        0.673818       -0.042415
H        0.992052        1.179948       -0.025908
H       -0.899378        1.275992        0.241369
C       -0.001943       -0.693825        0.020837
H       -0.889748       -1.201337        0.033793
H        0.888143       -1.016052        0.007701
6
  Step 88: 88.0 fs
C       -0.006491        0.664158       -0.042997
H        0.984228        1.169828       -0.016848
H       -0.881784        1.261002        0.243516
C       -0.007685       -0.681462        0.019098
H       -0.897753       -1.194682        0.043855
H        0.964658       -1.029776        0.014063
6
  Step 89: 89.0 fs
C       -0.007013        0.654348       -0.042292
H        0.968731        1.159673       -0.010323
H       -0.863499        1.246417        0.237699
C       -0.013097       -0.665773        0.016929
H       -0.923020       -1.205580        0.056633
H        1.057795       -1.064134        0.018014
6
  Step 90: 90.0 fs
C       -0.007017        0.645124       -0.040456
H        0.949341        1.151236       -0.006715
H       -0.850318        1.235749        0.225456
C       -0.016275       -0.649725        0.014430
H       -0.953740       -1.227176        0.071468
H        1.132611       -1.104677        0.019700
6
  Step 91: 91.0 fs
C       -0.006469        0.637363       -0.037671
H        0.931275        1.146885       -0.006233
H       -0.847125        1.231794        0.208305
C       -0.017104       -0.636060        0.011775
H       -0.976866       -1.250795        0.087169
H        1.173963       -1.143045        0.019125
6
  Step 92: 92.0 fs
C       -0.005587        0.632075       -0.034088
H        0.919615        1.148909       -0.008912
H       -0.855677        1.235212        0.187078
C       -0.015959       -0.627020        0.009154
H       -0.983728       -1.269597        0.102388
H        1.176914       -1.174362        0.016353
6
  Step 93: 93.0 fs
C       -0.004750        0.630239       -0.029796
H        0.917155        1.158459       -0.014660