6
  Step 0: 0.0 fs
C        0.000001        0.665091        0.000000
H        0.925304        1.240816        0.000002
H       -0.925310        1.240810       -0.000001
C       -0.000001       -0.665090       -0.000000
H       -0.925312       -1.240818        0.000003
H        0.925315       -1.240811       -0.000000
6
  Step 1: 1.0 fs
C        0.005351        0.671704       -0.001681
H        0.940061        1.235773       -0.019723
H       -0.962608        1.182427        0.015540
C       -0.011048       -0.662019        0.007079
H       -0.924840       -1.234542       -0.047674
H        1.015226       -1.298974       -0.012412
6
  Step 2: 2.0 fs
C        0.010446        0.677822       -0.003291
H        0.952308        1.231740       -0.038626
H       -0.996488        1.127455        0.030348
C       -0.019690       -0.659864        0.013876
H       -0.926700       -1.230284       -0.093680
H        1.080954       -1.342726       -0.024076
6
  Step 3: 3.0 fs
C        0.014956        0.682987       -0.004762
H        0.960204        1.229671       -0.055885
H       -1.023254        1.078853        0.043632
C       -0.024948       -0.658862        0.020130
H       -0.931486       -1.228866       -0.136563
H        1.113523       -1.366898       -0.034172
6
  Step 4: 4.0 fs
C        0.018538        0.686783       -0.006028
H        0.962806        1.230476       -0.070753
H       -1.039902        1.039331        0.054629
C       -0.026555       -0.659090        0.025594
H       -0.937698       -1.229503       -0.174809
H        1.110283       -1.370031       -0.042033
6
  Step 5: 5.0 fs
C        0.020915        0.688856       -0.007034
H        0.960044        1.234942       -0.082620
H       -1.044908        1.011371        0.062705
C       -0.024607       -0.660619        0.030020
H       -0.942576       -1.230258       -0.206674
H        1.071439       -1.352241       -0.047093
6
  Step 6: 6.0 fs
C        0.021940        0.688934       -0.007736
H        0.952505        1.243603       -0.091026
H       -1.038685        0.997081        0.067404
C       -0.019433       -0.663444        0.033174
H       -0.943552       -1.229000       -0.230373
H        0.999926       -1.315169       -0.048891
6
  Step 7: 7.0 fs
C        0.021646        0.686852       -0.008105
H        0.941109        1.256572       -0.095661
H       -1.023618        0.998025        0.068493
C       -0.011786       -0.667235        0.034894
H       -0.939357       -1.224183       -0.244456
H        0.904522       -1.263962       -0.047343
6
  Step 8: 8.0 fs
C        0.020258        0.682575       -0.008132
H        0.926808        1.273372       -0.096351
H       -1.003725        1.014970        0.065994
C       -0.003507       -0.670849        0.035182
H       -0.930489       -1.215273       -0.248125
H        0.808015       -1.212660       -0.043589
6
  Step 9: 9.0 fs
C        0.018154        0.676242       -0.007826
H        0.910401        1.292816       -0.093052
H       -0.983623        1.047556        0.060131
C        0.001697       -0.671764        0.034327
H       -0.919214       -1.202939       -0.241423
H        0.756137       -1.190731       -0.041192
6
  Step 10: 10.0 fs
C        0.015693        0.668303       -0.007214
H        0.892593        1.313000       -0.085812
H       -0.966636        1.093885        0.051199
C        0.000864       -0.667827        0.032694
H       -0.909402       -1.189147       -0.225306
H        0.786378       -1.223365       -0.043454
6
  Step 11: 11.0 fs
C        0.013034        0.659680       -0.006335
H        0.874238        1.331529       -0.074785
H       -0.953214        1.150101        0.039443
C       -0.003283       -0.660907        0.030212
H       -0.905978       -1.177051       -0.201490
H        0.868932       -1.289921       -0.047466
6
  Step 12: 12.0 fs
C        0.010118        0.651652       -0.005236
H        0.856549        1.345972       -0.060306
H       -0.941120        1.210374        0.025191
C       -0.006735       -0.654109        0.026756
H       -0.912603       -1.169938       -0.171756
H        0.956982       -1.357110       -0.049357
6
  Step 13: 13.0 fs
C        0.006804        0.645554       -0.003975
H        0.841187        1.354365       -0.042924
H       -0.927332        1.267879        0.008992
C       -0.007669       -0.649378        0.022367
H       -0.929213       -1.169496       -0.137267
H        1.025754       -1.407170       -0.047782
6
  Step 14: 14.0 fs
C        0.002985        0.642454       -0.002613
H        0.830217        1.355583       -0.023352
H       -0.909922        1.316396       -0.008391
C       -0.005852       -0.647814        0.017153
H       -0.951502       -1.174924       -0.098653
H        1.065449       -1.433188       -0.042721
6
  Step 15: 15.0 fs
C       -0.001355        0.642909       -0.001214
H        0.825897        1.349453       -0.002370
H       -0.888778        1.351434       -0.026072
C       -0.001742       -0.649989        0.011264
H       -0.972765       -1.183618       -0.056669
H        1.072631       -1.432916       -0.034552
6
  Step 16: 16.0 fs
C       -0.006108        0.646832        0.000165
H        0.830278        1.336574        0.019250
H       -0.865655        1.370918       -0.043200
C        0.004040       -0.655939        0.004908
H       -0.986690       -1.192695       -0.012675
H        1.046815       -1.406300       -0.023782
6
  Step 17: 17.0 fs
C       -0.011001        0.653526        0.001477
H        0.844554        1.317910        0.040780
H       -0.843930        1.375430       -0.059095
C        0.010850       -0.665097       -0.001647
H       -0.989113       -1.200060        0.031371
H        0.990413       -1.355442       -0.011023
6
  Step 18: 18.0 fs
C       -0.015536        0.661847        0.002690
H        0.868292        1.294324        0.061503
H       -0.828275        1.368232       -0.073357
C        0.017767       -0.676180       -0.008099
H       -0.978614       -1.204855        0.073246
H        0.912166       -1.286981        0.003027
6
  Step 19: 19.0 fs
C       -0.019007        0.670436        0.003792
H        0.898957        1.266388        0.080665
H       -0.823909        1.354679       -0.085933
C        0.022865       -0.686882       -0.014170
H       -0.956594       -1.207571        0.110880
H        0.835748       -1.217619        0.017968
6
  Step 20: 20.0 fs
C       -0.020696        0.678038        0.004787
H        0.932214        1.234628        0.097443
H       -0.834631        1.340253       -0.096974
C        0.022574       -0.693752       -0.019763
H       -0.927141       -1.210024        0.142701
H        0.807347       -1.177685        0.035151
6
  Step 21: 21.0 fs
C       -0.020217        0.683854        0.005661
H        0.963073        1.199991        0.111014
H       -0.860165        1.327921       -0.106448
C        0.014816       -0.694516       -0.024975
H       -0.896909       -1.215377        0.168010
H        0.858461       -1.185510        0.057406
6
  Step 22: 22.0 fs
C       -0.017730        0.687666        0.006353
H        0.987234        1.164140        0.120646
H       -0.895141        1.317122       -0.113779
C        0.003297       -0.690566       -0.029610
H       -0.874123       -1.227767        0.187165
H        0.954038       -1.218885        0.082884
6
  Step 23: 23.0 fs
C       -0.013834        0.689582        0.006775
H        1.002150        1.129468        0.125850
H       -0.931103        1.305237       -0.118008
C       -0.007551       -0.683913       -0.033274
H       -0.864407       -1.250229        0.200838
H        1.048158       -1.251896        0.106840
6
  Step 24: 24.0 fs
C       -0.009300        0.689770        0.006834
H        1.007578        1.098933        0.126528
H       -0.959892        1.289890       -0.118266
C       -0.015725       -0.675849       -0.035648
H       -0.867008       -1.281985        0.208718
H        1.117462       -1.272509        0.126115
6
  Step 25: 25.0 fs
C       -0.004891        0.688360        0.006460
H        1.005556        1.075721        0.122995
H       -0.975835        1.270204       -0.114113
C       -0.020892       -0.667457       -0.036466
H       -0.875681       -1.318029        0.209213
H        1.153133       -1.276689        0.139177
6
  Step 26: 26.0 fs
C       -0.001252        0.685455        0.005619
H        0.999771        1.062797        0.115874
H       -0.976491        1.246982       -0.105621
C       -0.023331       -0.659801       -0.035524
H       -0.882961       -1.351553        0.200511
H        1.152571       -1.263590        0.145309
6
  Step 27: 27.0 fs
C        0.001223        0.681157        0.004317
H        0.994163        1.062348        0.105891
H       -0.962944        1.222645       -0.093354
C       -0.023353       -0.653820       -0.032733
H       -0.883537       -1.376611        0.181637
H        1.116022       -1.233790        0.144181
6
  Step 28: 28.0 fs
C        0.002545        0.675599        0.002612
H        0.991044        1.075086        0.093636
H       -0.939849        1.201083       -0.078290
C       -0.021220       -0.650193       -0.028141
H       -0.875156       -1.389267        0.152764
H        1.046530       -1.189308        0.135867
6
  Step 29: 29.0 fs
C        0.003202        0.668967        0.000610
H        0.989976        1.099768        0.079486
H       -0.915045        1.187296       -0.061679
C       -0.017406       -0.649106       -0.021967
H       -0.858759       -1.388198        0.115129
H        0.953169       -1.135245        0.121365
6
  Step 30: 30.0 fs
C        0.003942        0.661556       -0.001573
H        0.988212        1.133275        0.063748
H       -0.897173        1.186006       -0.044721
C       -0.013333       -0.649841       -0.014681
H       -0.838273       -1.374852        0.070759
H        0.859273       -1.083803        0.103766
6
  Step 31: 31.0 fs
C        0.005315        0.653902       -0.003845
H        0.982346        1.171308        0.046836
H       -0.891373        1.199227       -0.028265
C       -0.012171       -0.650430       -0.007046
H       -0.820144       -1.353420        0.022057
H        0.811028       -1.058340        0.089059
6
  Step 32: 32.0 fs
C        0.007317        0.646928       -0.006130
H        0.969863        1.209339        0.029320
H       -0.896201        1.224355       -0.012838
C       -0.016349       -0.649066        0.000344
H       -0.812292       -1.330220       -0.028763
H        0.846406       -1.077897        0.081183
6
  Step 33: 33.0 fs
C        0.009482        0.641867       -0.008355
H        0.949997        1.243532        0.011923
H       -0.905426        1.255152        0.001026
C       -0.022839       -0.646822        0.007586
H       -0.821238       -1.311408       -0.080212
H        0.935945       -1.128165        0.076422
6
  Step 34: 34.0 fs
C        0.011231        0.639830       -0.010442
H        0.923980        1.271358       -0.004517
H       -0.912368        1.284491        0.012597
C       -0.027553       -0.645836        0.014819
H       -0.847596       -1.299344       -0.131134
H        1.030579       -1.184869        0.070946
6
  Step 35: 35.0 fs
C        0.012087        0.641384       -0.012320
H        0.895017        1.291967       -0.019179
H       -0.912846        1.306682        0.021118
C       -0.028923       -0.647530        0.021888
H       -0.884682       -1.291107       -0.179593
H        1.103233       -1.234239        0.063748
6
  Step 36: 36.0 fs
C        0.011692        0.646401       -0.013932
H        0.867924        1.306247       -0.031383
H       -0.905715        1.318335        0.026003
C       -0.027016       -0.652507        0.028455
H       -0.922445       -1.281478       -0.222564
H        1.142951       -1.270277        0.055026
6
  Step 37: 37.0 fs
C        0.009841        0.654105       -0.015227
H        0.848257        1.316382       -0.040660
H       -0.892663        1.318545        0.026929
C       -0.022356       -0.660647        0.034148
H       -0.952138       -1.266476       -0.256846
H        1.145832       -1.290426        0.045295
6
  Step 38: 38.0 fs
C        0.006597        0.663292       -0.016166
H        0.840592        1.324638       -0.046731
H       -0.877896        1.308885        0.023866
C       -0.015455       -0.671274        0.038646
H       -0.968278       -1.244531       -0.279958
H        1.111336       -1.293821        0.035172
6
  Step 39: 39.0 fs
C        0.002449        0.672629       -0.016722
H        0.846545        1.331927       -0.049406
H       -0.867731        1.293222        0.017034
C       -0.006785       -0.683338        0.041715
H       -0.968862       -1.216331       -0.290547
H        1.041965       -1.281174        0.025351
6
  Step 40: 40.0 fs
C       -0.001709        0.680903       -0.016887
H        0.863831        1.337206       -0.048507
H       -0.869176        1.276707        0.006788
C        0.002944       -0.695425        0.043241
H       -0.955379       -1.184394       -0.288599
H        0.946309       -1.256466        0.016531
6
  Step 41: 41.0 fs
C       -0.004921        0.687245       -0.016653
H        0.887106        1.338246       -0.043919
H       -0.886566        1.263304       -0.006546
C        0.012145       -0.705482        0.043268
H       -0.932928       -1.152667       -0.275523
H        0.846670       -1.231589        0.009098
6
  Step 42: 42.0 fs
C       -0.006619        0.691253       -0.016013
H        0.910069        1.333037       -0.035716
H       -0.918291        1.253511       -0.022674
C        0.017759       -0.710433        0.042061
H       -0.910238       -1.126084       -0.254078
H        0.786127       -1.231942        0.002332
6
  Step 43: 43.0 fs
C       -0.006814        0.692953       -0.014979
H        0.927449        1.320771       -0.024212
H       -0.956869        1.244561       -0.041114
C        0.017639       -0.707657        0.040019
H       -0.898449       -1.109835       -0.227827
H        0.799283       -1.280270       -0.004981
6
  Step 44: 44.0 fs
C       -0.005921        0.692637       -0.013603
H        0.936084        1.302063       -0.009944
H       -0.992646        1.232917       -0.061057
C        0.014532       -0.698299        0.037302
H       -0.906540       -1.107789       -0.199669
H        0.860887       -1.359615       -0.011499
6
  Step 45: 45.0 fs
C       -0.004489        0.690638       -0.011973
H        0.935429        1.278946        0.006376
H       -1.017633        1.216328       -0.081382
C        0.011905       -0.685353        0.033823
H       -0.934252       -1.119995       -0.170078
H        0.928486       -1.438050       -0.015076
6
  Step 46: 46.0 fs
C       -0.003063        0.687237       -0.010194
H        0.927586        1.254694        0.023979
H       -1.027046        1.194325       -0.100898
C        0.010787       -0.671314        0.029466
H       -0.971179       -1.141891       -0.137670
H        0.979006       -1.496549       -0.014869
6
  Step 47: 47.0 fs
C       -0.002106        0.682662       -0.008375
H        0.916883        1.233450        0.042179
H       -1.019729        1.168163       -0.118561
C        0.010798       -0.658111        0.024224
H       -1.003922       -1.166831       -0.101426
H        1.003629       -1.526928       -0.010889
6
  Step 48: 48.0 fs
C       -0.001871        0.677125       -0.006608
H        0.908432        1.219255        0.060461
H       -0.998326        1.140687       -0.133704
C        0.011346       -0.647287        0.018245
H       -1.022427       -1.188894       -0.061839
H        0.999847       -1.526155       -0.003464
6
  Step 49: 49.0 fs
C       -0.002189        0.670876       -0.004946
H        0.905785        1.214643        0.078400
H       -0.969362        1.116224       -0.146209
C        0.012049       -0.640053        0.011790
H       -1.021524       -1.203960       -0.020621
H        0.968058       -1.493742        0.006955
6
  Step 50: 50.0 fs
C       -0.002378        0.664227       -0.003370
H        0.909116        1.219573        0.095432
H       -0.942554        1.100182       -0.156609
C        0.012717       -0.637183        0.005172
H       -1.000640       -1.209935        0.019905
H        0.911339       -1.431656        0.019831
6
  Step 51: 51.0 fs
C       -0.001530        0.657571       -0.001814
H        0.915447        1.231567        0.110711
H       -0.927457        1.097463       -0.165715
C        0.013085       -0.638685       -0.001284
H       -0.963456       -1.206906        0.057293
H        0.838259       -1.346815        0.034609
6
  Step 52: 52.0 fs
C        0.000877        0.651425       -0.000251
H        0.920579        1.246869        0.123226
H       -0.927999        1.109910       -0.173711
C        0.012213       -0.643183       -0.007334
H       -0.918205       -1.197653        0.089512
H        0.770144       -1.257089        0.051308
6
  Step 53: 53.0 fs
C        0.004596        0.646460        0.001220
H        0.921158        1.261794        0.132114
H       -0.939786        1.134830       -0.179535
C        0.007843       -0.647525       -0.013010
H       -0.877352       -1.188043        0.115538
H        0.748259       -1.195716        0.072279
6
  Step 54: 54.0 fs
C        0.008828        0.643441        0.002411
H        0.915670        1.273535        0.136895
H       -0.953748        1.166570       -0.181466
C       -0.001309       -0.649213       -0.018588
H       -0.855040       -1.186209        0.135739
H        0.803992       -1.184981        0.101463
6
  Step 55: 55.0 fs
C        0.012670        0.643071        0.003137
H        0.904697        1.280613        0.137521
H       -0.961480        1.199235       -0.178127
C       -0.011841       -0.649583       -0.023846
H       -0.860324       -1.198714        0.151168
H        0.907634       -1.203403        0.136037
6
  Step 56: 56.0 fs
C        0.015389        0.645653        0.003278
H        0.890826        1.283121        0.134366
H       -0.957976        1.228305       -0.168996
C       -0.020153       -0.650855       -0.028146
H       -0.889580       -1.225057        0.161644
H        1.013861       -1.224231        0.169098
6
  Step 57: 57.0 fs
C        0.016468        0.650924        0.002785
H        0.878300        1.282595        0.128165
H       -0.941913        1.251073       -0.154401
C       -0.025229       -0.654276       -0.030924
H       -0.929151       -1.257939        0.165284
H        1.097503       -1.235618        0.196019
6
  Step 58: 58.0 fs
C        0.015637        0.658127        0.001674
H        0.872015        1.281257        0.119814
H       -0.915390        1.266866       -0.135390
C       -0.027350       -0.660218       -0.031835
H       -0.964706       -1.288825        0.160168
H        1.147969       -1.234196        0.214547
6
  Step 59: 59.0 fs
C        0.012996        0.666209        0.000025
H        0.875705        1.280677        0.110065
H       -0.883695        1.277226       -0.113520
C       -0.026965       -0.668413       -0.030736
H       -0.986459       -1.311627        0.145538
H        1.161207       -1.219825        0.223609
6
  Step 60: 60.0 fs
C        0.009135        0.674043       -0.002020
H        0.890117        1.280607        0.099285
H       -0.854833        1.285926       -0.090605
C       -0.024385       -0.678188       -0.027644
H       -0.989533       -1.323258        0.121831
H        1.136269       -1.193706        0.222714
6
  Step 61: 61.0 fs
C        0.005019        0.680604       -0.004291
H        0.912489        1.278937        0.087481
H       -0.837536        1.297953       -0.068293
C       -0.019831       -0.688591       -0.022708
H       -0.973261       -1.323331        0.090375
H        1.075121       -1.158256        0.211930
6
  Step 62: 62.0 fs
C        0.001537        0.685197       -0.006652
H        0.937794        1.272858        0.074579
H       -0.837033        1.316596       -0.047590
C       -0.013715       -0.698379       -0.016244
H       -0.940983       -1.313987        0.053092
H        0.985687       -1.118287        0.192548
6
  Step 63: 63.0 fs
C       -0.000954        0.687614       -0.009014
H        0.960735        1.260232        0.060678
H       -0.851577        1.340638       -0.028876
C       -0.007287       -0.705801       -0.008845
H       -0.900511       -1.300070        0.012148
H        0.889936       -1.084029        0.168712
6
  Step 64: 64.0 fs
C       -0.002635        0.688056       -0.011307
H        0.977223        1.240323        0.046159
H       -0.873659        1.364770       -0.012380
C       -0.003475       -0.708320       -0.001459
H       -0.863732       -1.288818       -0.030689
H        0.833385       -1.074779        0.148929
6
  Step 65: 65.0 fs
C       -0.003923        0.686877       -0.013441
H        0.985125        1.213945        0.031616
H       -0.894498        1.382700        0.001500
C       -0.004880       -0.703726        0.005179
H       -0.843092       -1.287683       -0.074602
H        0.857757       -1.108119        0.139884
6
  Step 66: 66.0 fs
C       -0.005218        0.684442       -0.015321
H        0.984535        1.183321        0.017767
H       -0.907526        1.389846        0.012207
C       -0.009047       -0.692903        0.011368
H       -0.844551       -1.300057       -0.119324
H        0.937871       -1.172125        0.136437
6
  Step 67: 67.0 fs
C       -0.006839        0.681084       -0.016869
H        0.977831        1.151822        0.005386
H       -0.909365        1.384076        0.019212
C       -0.012471       -0.678782        0.017481
H       -0.862322       -1.321639       -0.163466
H        1.024260       -1.241436        0.131596
6
  Step 68: 68.0 fs
C       -0.008981        0.677085       -0.018032
H        0.969255        1.123456       -0.004838
H       -0.899977        1.365859        0.022129
C       -0.014053       -0.664156        0.023380
H       -0.884034       -1.343301       -0.203811
H        1.089513       -1.299719        0.122862
6
  Step 69: 69.0 fs
C       -0.011623        0.672662       -0.018790
H        0.963622        1.102077       -0.012401
H       -0.882683        1.338320        0.020814
C       -0.013974       -0.651189        0.028703
H       -0.898967       -1.356688       -0.236626
H        1.123309       -1.339146        0.110196
6
  Step 70: 70.0 fs
C       -0.014364        0.667969       -0.019146
H        0.964118        1.090330       -0.017018
H       -0.864189        1.307211        0.015377
C       -0.012593       -0.641469        0.033108
H       -0.901139       -1.356719       -0.258956
H        1.122686       -1.356106        0.094371
6
  Step 71: 71.0 fs
C       -0.016374        0.663109       -0.019121
H        0.970649        1.089010       -0.018545
H       -0.853570        1.280070        0.006084
C       -0.010116       -0.636072        0.036352
H       -0.889021       -1.341687       -0.269133
H        1.087873       -1.349057        0.076452
6
  Step 72: 72.0 fs
C       -0.016731        0.658274       -0.018732
H        0.979995        1.097186       -0.016921
H       -0.858449        1.263183       -0.006863
C       -0.006584       -0.635519        0.038300
H       -0.864954       -1.312895       -0.266889
H        1.021544       -1.318162        0.057701
6
  Step 73: 73.0 fs
C       -0.014990        0.653910       -0.017979
H        0.987568        1.112916       -0.012190
H       -0.879849        1.257817       -0.023385
C       -0.002031       -0.639525        0.038947
H       -0.835565       -1.274953       -0.253675
H        0.931051       -1.266810        0.039610
6
  Step 74: 74.0 fs
C       -0.011438        0.650661       -0.016863
H        0.989322        1.133962       -0.004560
H       -0.910983        1.259599       -0.043192
C        0.002987       -0.646548        0.038440
H       -0.812382       -1.235997       -0.232911
H        0.835215       -1.206274        0.023773
6
  Step 75: 75.0 fs
C       -0.006801        0.649056       -0.015424
H        0.982920        1.158311        0.005544
H       -0.941708        1.261971       -0.065386
C        0.006342       -0.653333        0.037101
H       -0.809915       -1.206105       -0.209214
H        0.774714       -1.162985        0.010978
6
  Step 76: 76.0 fs
C       -0.001849        0.649365       -0.013738
H        0.968046        1.184442        0.017513
H       -0.963489        1.259645       -0.088568
C        0.004980       -0.656381        0.035286
H       -0.837624       -1.192015       -0.185704
H        0.796343       -1.168266        0.000219
6
  Step 77: 77.0 fs
C        0.002769        0.651689       -0.011915
H        0.946325        1.211484        0.030696
H       -0.971459        1.249933       -0.111206
C       -0.000077       -0.656301        0.033009
H       -0.891392       -1.192477       -0.162003
H        0.885038       -1.213759       -0.008619
6
  Step 78: 78.0 fs
C        0.006589        0.655892       -0.010073
H        0.920990        1.239277        0.044541
H       -0.964635        1.232670       -0.131977
C       -0.005582       -0.656160        0.030007
H       -0.955836       -1.200309       -0.135916
H        0.988051       -1.268181       -0.013970
6
  Step 79: 79.0 fs
C        0.009395        0.661468       -0.008308
H        0.896159        1.268167        0.058649
H       -0.945831        1.209887       -0.150037
C       -0.010059       -0.657838        0.026165
H       -1.014241       -1.207965       -0.106146
H        1.072406       -1.313040       -0.015054
6
  Step 80: 80.0 fs
C        0.011300        0.667598       -0.006667
H        0.875542        1.298385        0.072746
H       -0.921539        1.185539       -0.165242
C       -0.013224       -0.661870        0.021569
H       -1.054843       -1.210571       -0.073024
H        1.124332       -1.341276       -0.011888
6
  Step 81: 81.0 fs
C        0.012798        0.673328       -0.005126
H        0.861230        1.329272        0.086549
H       -0.901204        1.164965       -0.178260
C       -0.015042       -0.668048        0.016424
H       -1.071510       -1.206038       -0.037982
H        1.138787       -1.350771       -0.004799
6
  Step 82: 82.0 fs
C        0.014556        0.677822       -0.003617
H        0.853165        1.358945        0.099631
H       -0.894183        1.153185       -0.190157
C       -0.015403       -0.675804        0.010983
H       -1.062795       -1.194452       -0.002936
H        1.114495       -1.341428        0.005775
6
  Step 83: 83.0 fs
C        0.016941        0.680632       -0.002112
H        0.849613        1.384624        0.111383
H       -0.904428        1.152209       -0.201324
C       -0.014073       -0.684342        0.005515
H       -1.031621       -1.177784        0.030129
H        1.052890       -1.314582        0.019322
6
  Step 84: 84.0 fs
C        0.019709        0.681764       -0.000703
H        0.848255        1.403451        0.121082
H       -0.927743        1.159850       -0.210651
C       -0.010808       -0.692584        0.000265
H       -0.986068       -1.160062        0.059544
H        0.960187       -1.274117        0.035268
6
  Step 85: 85.0 fs
C        0.022190        0.681496        0.000429
H        0.847173        1.413282        0.128050
H       -0.954870        1.171390       -0.216033
C       -0.005886       -0.698865       -0.004607
H       -0.939855       -1.147319        0.084431
H        0.854042       -1.230250        0.053327
6
  Step 86: 86.0 fs
C        0.023692        0.680120        0.001099
H        0.845398        1.413146        0.131830
H       -0.976628        1.182112       -0.215554
C       -0.001232       -0.700511       -0.009188
H       -0.909510       -1.146107        0.104971
H        0.773941       -1.206050        0.075083
6
  Step 87: 87.0 fs
C        0.023730        0.677848        0.001179
H        0.843126        1.403386        0.132296
H       -0.986869        1.188719       -0.208244
C        0.000003       -0.694745       -0.013861
H       -0.905666       -1.159785        0.121589
H        0.767460       -1.230830        0.105393
6
  Step 88: 88.0 fs
C        0.022052        0.674918        0.000609
H        0.841666        1.385524        0.129645
H       -0.983048        1.189727       -0.194173
C       -0.001694       -0.682582       -0.018530
H       -0.925591       -1.185528        0.133488
H        0.825208       -1.298149        0.144454
6
  Step 89: 89.0 fs
C        0.018664        0.671628       -0.000590
H        0.843125        1.361929        0.124318
H       -0.966283        1.185532       -0.174304
C       -0.003539       -0.668091       -0.022343
H       -0.956216       -1.215695        0.138628
H        0.899936       -1.373579        0.184443
6
  Step 90: 90.0 fs
C        0.013886        0.668273       -0.002321
H        0.849723        1.335254        0.116873
H       -0.941336        1.178415       -0.150315
C       -0.004369       -0.654616       -0.024577
H       -0.983372       -1.242072        0.135083
H        0.962326       -1.433896        0.218649
6
  Step 91: 91.0 fs
C        0.008406        0.665081       -0.004423
H        0.862827        1.307669        0.107811
H       -0.916315        1.172525       -0.124335
C       -0.004149       -0.644246       -0.024896
H       -0.997440       -1.258803        0.122045
H        1.000904       -1.469151        0.243597
6
  Step 92: 92.0 fs
C        0.003189        0.662212       -0.006713
H        0.882117        1.280329        0.097458
H       -0.900862        1.173118       -0.098430
C       -0.003075       -0.638233       -0.023226
H       -0.993880       -1.262925        0.099863
H        1.011934       -1.475703        0.257619
6
  Step 93: 93.0 fs
C       -0.000913        0.659837       -0.009058
H        0.905490        1.253473        0.085994