6
  Step 0: 0.0 fs
C       -0.000001        0.665094        0.000001
H        0.925313        1.240827       -0.000006
H       -0.925307        1.240820        0.000003
C        0.000001       -0.665096       -0.000001
H       -0.925318       -1.240810       -0.000001
H        0.925310       -1.240813        0.000008
6
  Step 1: 1.0 fs
C        0.005523        0.663535       -0.001417
H        0.919520        1.219615       -0.018501
H       -0.937668        1.233237        0.012705
C        0.000211       -0.660904        0.006788
H       -1.011871       -1.293084       -0.044684
H        0.961735       -1.191095       -0.013478
6
  Step 2: 2.0 fs
C        0.009991        0.662049       -0.002766
H        0.919272        1.202648       -0.036422
H       -0.945970        1.224846        0.024841
C       -0.000907       -0.657992        0.013258
H       -1.075178       -1.332153       -0.086806
H        0.993699       -1.143636       -0.026546
6
  Step 3: 3.0 fs
C        0.012657        0.660713       -0.003971
H        0.928063        1.192736       -0.053418
H       -0.947654        1.215685        0.035875
C       -0.003608       -0.656935        0.019086
H       -1.105552       -1.352670       -0.123620
H        1.017382       -1.100715       -0.038813
6
  Step 4: 4.0 fs
C        0.013347        0.659660       -0.004972
H        0.945045        1.189940       -0.069111
H       -0.942234        1.206837        0.045348
C       -0.007748       -0.657907        0.024001
H       -1.099748       -1.352953       -0.152853
H        1.030256       -1.064675       -0.049951
6
  Step 5: 5.0 fs
C        0.012455        0.659045       -0.005742
H        0.965301        1.191845       -0.082882
H       -0.931386        1.200325        0.052947
C       -0.013073       -0.660807        0.027776
H       -1.058064       -1.333347       -0.172719
H        1.031482       -1.037808       -0.059698
6
  Step 6: 6.0 fs
C        0.010705        0.658922       -0.006282
H        0.982441        1.195121       -0.093921
H       -0.918494        1.198757        0.058529
C       -0.019222       -0.665240        0.030251
H       -0.984585       -1.296469       -0.182125
H        1.022019       -1.022151       -0.067877
6
  Step 7: 7.0 fs
C        0.008827        0.659192       -0.006603
H        0.991310        1.196989       -0.101452
H       -0.907490        1.204593        0.062092
C       -0.025421       -0.670339        0.031410
H       -0.890809       -1.249583       -0.181584
H        1.004534       -1.019238       -0.074419
6
  Step 8: 8.0 fs
C        0.007304        0.659659       -0.006707
H        0.989308        1.195879       -0.104930
H       -0.901115        1.219060        0.063662
C       -0.029793       -0.674360        0.031584
H       -0.803585       -1.209988       -0.175593
H        0.983125       -1.029864       -0.079344
6
  Step 9: 9.0 fs
C        0.006202        0.660151       -0.006572
H        0.976837        1.191643       -0.104150
H       -0.899540        1.241282        0.063169
C       -0.029180       -0.674619        0.031582
H       -0.766421       -1.206675       -0.174106
H        0.962668       -1.053943       -0.082696
6
  Step 10: 10.0 fs
C        0.005175        0.660661       -0.006167
H        0.957307        1.185639       -0.099335
H       -0.900422        1.268223        0.060477
C       -0.022457       -0.669934        0.031814
H       -0.798918       -1.252912       -0.182007
H        0.947749       -1.090494       -0.084500
6
  Step 11: 11.0 fs
C        0.003633        0.661366       -0.005467
H        0.936600        1.180595       -0.091108
H       -0.900396        1.295637        0.055533
C       -0.012821       -0.662676        0.031541
H       -0.867576       -1.323169       -0.190202
H        0.940717       -1.137413       -0.084682
6
  Step 12: 12.0 fs
C        0.000987        0.662471       -0.004462
H        0.921527        1.179785       -0.080281
H       -0.896807        1.319437        0.048453
C       -0.003354       -0.655726        0.030055
H       -0.936203       -1.388694       -0.190022
H        0.939605       -1.190776       -0.082868
6
  Step 13: 13.0 fs
C       -0.003042        0.664133       -0.003181
H        0.916898        1.185401       -0.067485
H       -0.888708        1.336720        0.039524
C        0.004659       -0.650926        0.027118
H       -0.986756       -1.434467       -0.178582
H        0.939245       -1.244837       -0.078460
6
  Step 14: 14.0 fs
C       -0.008203        0.666468       -0.001685
H        0.923006        1.197138       -0.053010
H       -0.877137        1.346269        0.029172
C        0.010877       -0.649285        0.022765
H       -1.012292       -1.454428       -0.156153
H        0.934510       -1.293504       -0.071003
6
  Step 15: 15.0 fs
C       -0.013736        0.669485       -0.000055
H        0.935688        1.212227       -0.036929
H       -0.864951        1.348668        0.017886
C        0.015208       -0.651212        0.017162
H       -1.010715       -1.446639       -0.124225
H        0.922377       -1.331756       -0.060415
6
  Step 16: 16.0 fs
C       -0.018622        0.672979        0.001640
H        0.948802        1.226904       -0.019381
H       -0.856265        1.346018        0.006134
C        0.017551       -0.656582        0.010550
H       -0.982579       -1.411476       -0.084872
H        0.902713       -1.356598       -0.047019
6
  Step 17: 17.0 fs
C       -0.021897        0.676509        0.003356
H        0.956904        1.238003       -0.000770
H       -0.855309        1.341055       -0.005700
C        0.017831       -0.664713        0.003245
H       -0.931573       -1.351926       -0.040658
H        0.878307       -1.367491       -0.031462
6
  Step 18: 18.0 fs
C       -0.022926        0.679539        0.005063
H        0.956619        1.243752        0.018245
H       -0.864599        1.335638       -0.017293
C        0.016311       -0.674236       -0.004373
H       -0.867869       -1.275923        0.005416
H        0.854524       -1.366520       -0.014578
6
  Step 19: 19.0 fs
C       -0.021572        0.681622        0.006726
H        0.947117        1.244007        0.036821
H       -0.883463        1.329542       -0.028273
C        0.014258       -0.682870       -0.011954
H       -0.814957       -1.200579        0.050910
H        0.838292       -1.358020        0.002792
6
  Step 20: 20.0 fs
C       -0.018223        0.682478        0.008285
H        0.930298        1.240311        0.054057
H       -0.908094        1.320599       -0.038089
C        0.014179       -0.687786       -0.019422
H       -0.809879       -1.150461        0.096673
H        0.835720       -1.347139        0.019973
6
  Step 21: 21.0 fs
C       -0.013646        0.681977        0.009646
H        0.910659        1.235826        0.069200
H       -0.933149        1.306048       -0.046046
C        0.017161       -0.687770       -0.026874
H       -0.868518       -1.135256        0.145456
H        0.849058       -1.337526        0.036518
6
  Step 22: 22.0 fs
C       -0.008773        0.680077        0.010707
H        0.894314        1.234705        0.081884
H       -0.953674        1.283990       -0.051510
C        0.020857       -0.684201       -0.033867
H       -0.959961       -1.139682        0.193330
H        0.875334       -1.329792        0.052064
6
  Step 23: 23.0 fs
C       -0.004416        0.676800        0.011381
H        0.886579        1.240498        0.092070
H       -0.966335        1.254140       -0.054089
C        0.022886       -0.678885       -0.039683
H       -1.047691       -1.147955        0.232938
H        0.907409       -1.321738        0.066070
6
  Step 24: 24.0 fs
C       -0.000956        0.672335        0.011637
H        0.888974        1.254204        0.099696
H       -0.970114        1.218008       -0.053672
C        0.022426       -0.673114       -0.043821
H       -1.111546       -1.152584        0.259456
H        0.936927       -1.310234        0.077738
6
  Step 25: 25.0 fs
C        0.001788        0.667100        0.011502
H        0.898312        1.273535        0.104421
H       -0.966556        1.178736       -0.050389
C        0.019533       -0.667777       -0.046019
H       -1.142942       -1.150893        0.270708
H        0.957193       -1.293184        0.086248
6
  Step 26: 26.0 fs
C        0.004396        0.661646        0.011050
H        0.908734        1.294123        0.105691
H       -0.959552        1.140691       -0.044557
C        0.014527       -0.663508       -0.046167
H       -1.138962       -1.142267        0.266020
H        0.964332       -1.270234        0.090985
6
  Step 27: 27.0 fs
C        0.007543        0.656511        0.010357
H        0.914656        1.311493        0.103026
H       -0.954414        1.108701       -0.036577
C        0.007751       -0.660701       -0.044272
H       -1.100143       -1.127283        0.245679
H        0.957656       -1.242882        0.091697
6
  Step 28: 28.0 fs
C        0.011664        0.652160        0.009480
H        0.912628        1.322450        0.096240
H       -0.955561        1.086709       -0.026792
C       -0.000398       -0.659435       -0.040479
H       -1.031121       -1.108026        0.211109
H        0.939761       -1.214372        0.088547
6
  Step 29: 29.0 fs
C        0.016703        0.648971        0.008442
H        0.901946        1.325639        0.085522
H       -0.964057        1.076551       -0.015447
C       -0.009102       -0.659287       -0.035147
H       -0.944923       -1.089899        0.165805
H        0.916383       -1.189316        0.082100
6
  Step 30: 30.0 fs
C        0.022034        0.647181        0.007255
H        0.884786        1.321779        0.071466
H       -0.976878        1.077636       -0.002807
C       -0.016435       -0.659031       -0.028938
H       -0.870319       -1.085211        0.116372
H        0.895585       -1.172955        0.073153
6
  Step 31: 31.0 fs
C        0.026611        0.646817        0.005943
H        0.866088        1.313715        0.055029
H       -0.988605        1.087707        0.010616
C       -0.019462       -0.656815       -0.022559
H       -0.847837       -1.112768        0.069766
H        0.885070       -1.169452        0.062433
6
  Step 32: 32.0 fs
C        0.029290        0.647767        0.004568
H        0.852634        1.305907        0.037341
H       -0.994063        1.104023        0.024024
C       -0.017588       -0.652172       -0.016109
H       -0.886803       -1.177156        0.025729
H        0.888736       -1.180166        0.050324
6
  Step 33: 33.0 fs
C        0.029217        0.649955        0.003213
H        0.850507        1.302527        0.019381
H       -0.989998        1.124149        0.036522
C       -0.013544       -0.647169       -0.009407
H       -0.951615       -1.257019       -0.018993
H        0.904315       -1.202657        0.036855
6
  Step 34: 34.0 fs
C        0.026162        0.653425        0.001965
H        0.861866        1.304825        0.001763
H       -0.975756        1.146384        0.047356
C       -0.009490       -0.644162       -0.002597
H       -1.009223       -1.329986       -0.063586
H        0.924431       -1.231334        0.021996
6
  Step 35: 35.0 fs
C        0.020624        0.658275        0.000893
H        0.883627        1.310122       -0.015101
H       -0.953411        1.170047        0.056034
C       -0.006124       -0.644549        0.004008
H       -1.043799       -1.383711       -0.105273
H        0.940752       -1.259711        0.005996
6
  Step 36: 36.0 fs
C        0.013631        0.664438        0.000020
H        0.909386        1.313553       -0.030734
H       -0.927432        1.195617        0.062367
C       -0.003528       -0.648783        0.010079
H       -1.049847       -1.412859       -0.141333
H        0.947404       -1.282519       -0.010531
6
  Step 37: 37.0 fs
C        0.006391        0.671491       -0.000667
H        0.932585        1.310672       -0.044544
H       -0.903705        1.224502        0.066446
C       -0.001727       -0.656614        0.015316
H       -1.026531       -1.415643       -0.169528
H        0.941931       -1.296478       -0.026782
6
  Step 38: 38.0 fs
C       -0.000065        0.678711       -0.001198
H        0.948552        1.298926       -0.055898
H       -0.887458        1.258005        0.068518
C       -0.000840       -0.667250        0.019465
H       -0.975991       -1.392650       -0.188147
H        0.925467       -1.300546       -0.041964
6
  Step 39: 39.0 fs
C       -0.005148        0.685301       -0.001584
H        0.955122        1.277902       -0.064265
H       -0.880766        1.295795        0.068726
C       -0.000987       -0.679427        0.022356
H       -0.904208       -1.347442       -0.196307
H        0.902700       -1.295991       -0.055469
6
  Step 40: 40.0 fs
C       -0.008830        0.690589       -0.001807
H        0.952852        1.249202       -0.069292
H       -0.881625        1.335011        0.066966
C       -0.001902       -0.691284        0.024024
H       -0.825134       -1.289529       -0.195178
H        0.881478       -1.286200       -0.067015
6
  Step 41: 41.0 fs
C       -0.011536        0.694074       -0.001816
H        0.945004        1.216177       -0.070883
H       -0.885424        1.371024        0.063013
C       -0.002212       -0.700145        0.024897
H       -0.767140       -1.238961       -0.190253
H        0.871039       -1.275737       -0.076684
6
  Step 42: 42.0 fs
C       -0.013915        0.695398       -0.001556
H        0.937072        1.183373       -0.069225
H       -0.887381        1.399123        0.056728
C        0.000435       -0.703152        0.025739
H       -0.767225       -1.221809       -0.190760
H        0.877816       -1.268152       -0.084678
6
  Step 43: 43.0 fs
C       -0.016565        0.694384       -0.000988
H        0.935232        1.155489       -0.064722
H       -0.884211        1.415832        0.048210
C        0.006243       -0.699857        0.026655
H       -0.830054       -1.241875       -0.198129
H        0.901708       -1.264051       -0.090954
6
  Step 44: 44.0 fs
C       -0.019735        0.691096       -0.000116
H        0.943251        1.135703       -0.057791
H       -0.874790        1.419567        0.037815
C        0.012563       -0.692521        0.026866
H       -0.919333       -1.277042       -0.203495
H        0.936039       -1.261036       -0.095027
6
  Step 45: 45.0 fs
C       -0.023131        0.685830        0.001010
H        0.960107        1.124559       -0.048649
H       -0.860358        1.410926        0.026068
C        0.017305       -0.683441        0.025763
H       -1.001662       -1.308297       -0.200064
H        0.971048       -1.255406       -0.096124
6
  Step 46: 46.0 fs
C       -0.025983        0.679021        0.002316
H        0.980521        1.120367       -0.037366
H       -0.844413        1.392741        0.013540
C        0.019704       -0.674155        0.023154
H       -1.059640       -1.326622       -0.185826
H        0.998060       -1.244185       -0.093590
6
  Step 47: 47.0 fs
C       -0.027320        0.671147        0.003732
H        0.997809        1.120563       -0.024082
H       -0.832189        1.369701        0.000734
C        0.019645       -0.665711        0.019092
H       -1.085882       -1.328689       -0.161276
H        1.011409       -1.226055       -0.087124
6
  Step 48: 48.0 fs
C       -0.026321        0.662711        0.005218
H        1.006646        1.122947       -0.009113
H       -0.829066        1.346946       -0.012001
C        0.017172       -0.658871        0.013755
H       -1.077886       -1.313770       -0.127939
H        1.008991       -1.201599       -0.076842
6
  Step 49: 49.0 fs
C       -0.022616        0.654361        0.006752
H        1.004223        1.126179        0.007035
H       -0.838011        1.327780       -0.024424
C        0.012333       -0.654158        0.007403
H       -1.036434       -1.282857       -0.087895
H        0.992399       -1.173266       -0.063232
6
  Step 50: 50.0 fs
C       -0.016454        0.646940        0.008309
H        0.990594        1.129972        0.023731
H       -0.857717        1.312084       -0.036211
C        0.005258       -0.651740        0.000368
H       -0.966762       -1.239443       -0.043777
H        0.966935       -1.145202       -0.047043
6
  Step 51: 51.0 fs
C       -0.008658        0.641315        0.009841
H        0.968726        1.135185        0.040302
H       -0.883185        1.297032       -0.046794
C       -0.003389       -0.651124       -0.006961
H       -0.883413       -1.192404        0.001323
H        0.941052       -1.122758       -0.029100
6
  Step 52: 52.0 fs
C       -0.000395        0.638084        0.011259
H        0.944190        1.143798        0.056129
H       -0.908172        1.279327       -0.055402
C       -0.011610       -0.650803       -0.014277
H       -0.817264       -1.160352        0.045280
H        0.923919       -1.111062       -0.010053
6
  Step 53: 53.0 fs
C        0.007107        0.637442        0.012444
H        0.923970        1.158516        0.070732
H       -0.927580        1.257020       -0.061223
C       -0.016375       -0.648794       -0.021589
H       -0.807368       -1.167178        0.089719
H        0.921056       -1.112929        0.009679
6
  Step 54: 54.0 fs
C        0.012911        0.639364        0.013287
H        0.913592        1.181439        0.083779
H       -0.938558        1.230065       -0.063648
C       -0.017199       -0.645235       -0.028915
H       -0.855746       -1.213589        0.136344
H        0.931487       -1.127726        0.029630
6
  Step 55: 55.0 fs
C        0.016671        0.643770        0.013738
H        0.914144        1.212294        0.094929
H       -0.940910        1.200261       -0.062462
C       -0.016341       -0.642593       -0.035689
H       -0.926012       -1.274422        0.179959
H        0.948565       -1.151870        0.048961
6
  Step 56: 56.0 fs
C        0.018692        0.650457        0.013824
H        0.921841        1.247776        0.103639
H       -0.937116        1.170939       -0.057854
C       -0.015339       -0.642887       -0.041230
H       -0.988473       -1.328165        0.214107
H        0.963532       -1.180406        0.066449
6
  Step 57: 57.0 fs
C        0.019706        0.658948        0.013618
H        0.930533        1.282959        0.109233
H       -0.931992        1.146424       -0.050333
C       -0.014589       -0.646879       -0.045089
H       -1.029047       -1.363997        0.235044
H        0.969286       -1.208803        0.080787
6
  Step 58: 58.0 fs
C        0.020524        0.668468        0.013200
H        0.934657        1.313230        0.111118
H       -0.931257        1.130937       -0.040526
C       -0.014071       -0.654395       -0.047021
H       -1.042534       -1.377566        0.241228
H        0.961997       -1.233870        0.090903
6
  Step 59: 59.0 fs
C        0.021670        0.678093        0.012618
H        0.930945        1.335553        0.108962
H       -0.938712        1.127017       -0.028960
C       -0.013777       -0.664695       -0.046928
H       -1.027919       -1.367705        0.232378
H        0.941398       -1.254091        0.096149
6
  Step 60: 60.0 fs
C        0.023147        0.686942        0.011887
H        0.918828        1.348831        0.102766
H       -0.953822        1.134427       -0.015963
C       -0.013802       -0.676662       -0.044841
H       -0.987347       -1.335582        0.209174
H        0.910766       -1.269773        0.096409
6
  Step 61: 61.0 fs
C        0.024441        0.694243        0.010999
H        0.900428        1.353974        0.092871
H       -0.971849        1.150400       -0.001802
C       -0.014179       -0.688811       -0.040970
H       -0.927781       -1.285657        0.173661
H        0.876699       -1.283075        0.092140
6
  Step 62: 62.0 fs
C        0.024765        0.699311        0.009952
H        0.880213        1.353712        0.079926
H       -0.986486        1.170962        0.013107
C       -0.014356       -0.699143       -0.035773
H       -0.866036       -1.228689        0.130186
H        0.848051       -1.297669        0.084243
6
  Step 63: 63.0 fs
C        0.023372        0.701565        0.008766
H        0.863949        1.351872        0.064761
H       -0.992680        1.192287        0.028144
C       -0.012507       -0.705133       -0.029928
H       -0.833749       -1.184192        0.085393
H        0.832785       -1.317150        0.073683
6
  Step 64: 64.0 fs
C        0.019845        0.700669        0.007498
H        0.856450        1.351680        0.048192
H       -0.987840        1.211350        0.042542
C       -0.006502       -0.704886       -0.023893
H       -0.861574       -1.169900        0.043474
H        0.833764       -1.342588        0.061013
6
  Step 65: 65.0 fs
C        0.014324        0.696721        0.006236
H        0.859175        1.353889        0.030882
H       -0.972225        1.226280        0.055531
C        0.002807       -0.699128       -0.017572
H       -0.938644       -1.179876        0.002257
H        0.847381       -1.371301        0.046325
6
  Step 66: 66.0 fs
C        0.007529        0.690243        0.005070
H        0.869581        1.356235        0.013345
H       -0.948828        1.236586        0.066530
C        0.012599       -0.690171       -0.010934
H       -1.026777       -1.195541       -0.039619
H        0.866021       -1.397798        0.029592
6
  Step 67: 67.0 fs
C        0.000529        0.681986        0.004057
H        0.882846        1.354819       -0.003910
H       -0.922894        1.243238        0.075268
C        0.020972       -0.680027       -0.004230
H       -1.098157       -1.204944       -0.080314
H        0.881846       -1.416087        0.011039
6
  Step 68: 68.0 fs
C       -0.005569        0.672741        0.003214
H        0.894363        1.346176       -0.020307
H       -0.900806        1.248369        0.081807
C        0.027108       -0.670140        0.002198
H       -1.139762       -1.203448       -0.117151
H        0.889390       -1.421706       -0.008762
6
  Step 69: 69.0 fs
C       -0.009905        0.663295        0.002531
H        0.901116        1.328422       -0.035232
H       -0.887984        1.254188        0.086352
C        0.030657       -0.661580        0.008021
H       -1.146873       -1.190081       -0.147735
H        0.886292       -1.412592       -0.029005
6
  Step 70: 70.0 fs
C       -0.012096        0.654474        0.002005
H        0.902192        1.301669       -0.048122
H       -0.886544        1.261410        0.088973
C        0.031368       -0.655121        0.012956
H       -1.118943       -1.165610       -0.170104
H        0.873464       -1.389414       -0.048861
6
  Step 71: 71.0 fs
C       -0.012290        0.647125        0.001664
H        0.898871        1.268037       -0.058547
H       -0.894592        1.268558        0.089460
C        0.029004       -0.651182        0.016780
H       -1.058792       -1.132225       -0.182799
H        0.855145       -1.355695       -0.067702
6
  Step 72: 72.0 fs
C       -0.011043        0.641960        0.001566
H        0.894522        1.231485       -0.066280
H       -0.907583        1.272782        0.087431
C        0.023510       -0.649680        0.019390
H       -0.974509       -1.094391       -0.185320
H        0.838760       -1.317589       -0.085322
6
  Step 73: 73.0 fs
C       -0.009098        0.639373        0.001785
H        0.894054        1.197166       -0.071340
H       -0.920509        1.271416        0.082572
C        0.015642       -0.649828        0.020918
H       -0.885190       -1.061375       -0.179546
H        0.833348       -1.282349       -0.101983
6
  Step 74: 74.0 fs
C       -0.007154        0.639384        0.002388
H        0.902242        1.170000       -0.073927
H       -0.929552        1.263210        0.074820
C        0.007881       -0.650102        0.021873
H       -0.827071       -1.050265       -0.171789
H        0.845341       -1.254940       -0.117953
6
  Step 75: 75.0 fs
C       -0.005614        0.641786        0.003392
H        0.920981        1.152774       -0.074212
H       -0.932796        1.248777        0.064476
C        0.003366       -0.649078        0.022829
H       -0.836111       -1.078812       -0.169641
H        0.874300       -1.235529       -0.132806
6
  Step 76: 76.0 fs
C       -0.004424        0.646329        0.004742
H        0.947643        1.145297       -0.072227
H       -0.930510        1.230551        0.052205
C        0.001909       -0.647387        0.023494
H       -0.900852       -1.142138       -0.170844
H        0.913278       -1.220724       -0.145308
6
  Step 77: 77.0 fs
C       -0.003129        0.652680        0.006330
H        0.976119        1.145229       -0.067884
H       -0.925144        1.212397        0.038879
C        0.001093       -0.647037        0.023096
H       -0.979774       -1.217884       -0.167438
H        0.952648       -1.206541       -0.153901
6
  Step 78: 78.0 fs
C       -0.001116        0.660281        0.008044
H        0.999633        1.149670       -0.061127
H       -0.920660        1.198814        0.025347
C       -0.000502       -0.649306        0.021222
H       -1.043989       -1.288328       -0.155347
H        0.983882       -1.190424       -0.157321
6
  Step 79: 79.0 fs
C        0.002064        0.668385        0.009798
H        1.013117        1.156321       -0.052060
H       -0.920649        1.193533        0.012271
C       -0.003241       -0.654431        0.017827
H       -1.080296       -1.343836       -0.134183
H        1.001427       -1.171760       -0.154929
6
  Step 80: 80.0 fs
C        0.006452        0.676217        0.011533
H        1.014269        1.163904       -0.040996
H       -0.926151        1.198186        0.000135
C       -0.007124       -0.661972        0.013059
H       -1.083808       -1.379624       -0.105153
H        1.003278       -1.151670       -0.146770
6
  Step 81: 81.0 fs
C        0.011572        0.683100        0.013205
H        1.003845        1.172217       -0.028429
H       -0.934704        1.211790       -0.010629
C       -0.012145       -0.671129        0.007175
H       -1.053723       -1.393479       -0.070075
H        0.990985       -1.132641       -0.133500
6
  Step 82: 82.0 fs
C        0.016556        0.688465        0.014767
H        0.985502        1.182067       -0.014977
H       -0.941603        1.231482       -0.019555
C       -0.018336       -0.680877        0.000510
H       -0.992668       -1.385393       -0.031108
H        0.969543       -1.118090       -0.116243
6
  Step 83: 83.0 fs
C        0.020388        0.691819        0.016162
H        0.965094        1.195011       -0.001298
H       -0.942231        1.253832       -0.026149
C       -0.025543       -0.689945       -0.006548
H       -0.908667       -1.358947        0.009364
H        0.946758       -1.111780       -0.096355
6
  Step 84: 84.0 fs
C        0.022220        0.692770        0.017320
H        0.948704        1.212480        0.012004
H       -0.933815        1.275831       -0.029976
C       -0.032786       -0.696619       -0.013653
H       -0.820387       -1.325467        0.049374
H        0.930866       -1.116581       -0.075034
6
  Step 85: 85.0 fs
C        0.021665        0.691144        0.018169
H        0.939902        1.234424        0.024406
H       -0.916125        1.295388       -0.030733
C       -0.037604       -0.698538       -0.020695
H       -0.761126       -1.308368        0.089516
H        0.926689       -1.132973       -0.053092
6
  Step 86: 86.0 fs
C        0.018947        0.687107        0.018653
H        0.938189        1.258435        0.035378
H       -0.891449        1.311512       -0.028282
C       -0.037478       -0.693911       -0.027871
H       -0.759897       -1.329986        0.133819
H        0.933351       -1.158510       -0.031143
6
  Step 87: 87.0 fs
C        0.014803        0.681215        0.018754
H        0.939955        1.280271        0.044356
H       -0.864133        1.324334       -0.022696
C       -0.033011       -0.684185       -0.034981
H       -0.804987       -1.380101        0.181529
H        0.945513       -1.188694       -0.009947
6
  Step 88: 88.0 fs
C        0.010170        0.674266        0.018492
H        0.940992        1.295435        0.050819
H       -0.839627        1.334878       -0.014237
C       -0.026447       -0.672666       -0.041265
H       -0.864248       -1.430547        0.225072
H        0.956243       -1.218367        0.009528
6
  Step 89: 89.0 fs
C        0.005863        0.667127        0.017916
H        0.938440        1.300585        0.054371
H       -0.822948        1.344349       -0.003243
C       -0.019267       -0.661989       -0.046058
H       -0.916066       -1.462700        0.257791
H        0.959706       -1.242951        0.026196
6
  Step 90: 90.0 fs
C        0.002362        0.660642        0.017078
H        0.931430        1.294232        0.054778
H       -0.817032        1.353037        0.009963
C       -0.012194       -0.653817       -0.048987
H       -0.950462       -1.468811        0.276186
H        0.952656       -1.259257        0.039034
6
  Step 91: 91.0 fs
C       -0.000260        0.655571        0.016031
H        0.921097        1.276953        0.051961
H       -0.821940        1.359634        0.025062
C       -0.005718       -0.649120       -0.049889
H       -0.963509       -1.446916        0.278867
H        0.935053       -1.266014        0.047276
6
  Step 92: 92.0 fs
C       -0.002274        0.652451        0.014818
H        0.910396        1.251388        0.045986
H       -0.835324        1.361593        0.041647
C       -0.000367       -0.648278       -0.048733
H       -0.954290       -1.398012        0.265660
H        0.910190       -1.264180        0.050556
6
  Step 93: 93.0 fs
C       -0.004147        0.651431        0.013476
H        0.903713        1.221950        0.037046