6
  Step 0: 0.0 fs
C       -0.000001        0.665091        0.000000
H        0.925302        1.240811        0.000001
H       -0.925308        1.240833       -0.000009
C        0.000001       -0.665092        0.000001
H       -0.925304       -1.240814       -0.000002
H        0.925303       -1.240815       -0.000012
6
  Step 1: 1.0 fs
C       -0.000659        0.652623       -0.002250
H        0.906744        1.243012        0.016608
H       -0.931633        1.247604       -0.013496
C       -0.000647       -0.653418        0.006321
H       -0.963318       -1.199020       -0.010742
H        1.003761       -1.282126       -0.040846
6
  Step 2: 2.0 fs
C       -0.001625        0.641654       -0.004420
H        0.890864        1.246108        0.032564
H       -0.934723        1.251021       -0.026457
C       -0.000210       -0.644037        0.012344
H       -0.994829       -1.157526       -0.021118
H        1.060537       -1.311212       -0.079346
6
  Step 3: 3.0 fs
C       -0.003011        0.633579       -0.006448
H        0.879534        1.250598        0.047319
H       -0.932987        1.248885       -0.038427
C        0.001533       -0.638524        0.017771
H       -1.015246       -1.117590       -0.030755
H        1.086307       -1.322991       -0.112950
6
  Step 4: 4.0 fs
C       -0.004700        0.629422       -0.008279
H        0.873443        1.256358        0.060360
H       -0.926806        1.240607       -0.049034
C        0.004529       -0.637772        0.022349
H       -1.022580       -1.081443       -0.039352
H        1.077993       -1.316083       -0.139498
6
  Step 5: 5.0 fs
C       -0.006365        0.629581       -0.009845
H        0.872183        1.262717        0.071175
H       -0.918511        1.227337       -0.058027
C        0.008700       -0.641894        0.025880
H       -1.017632       -1.052037       -0.046764
H        1.036184       -1.291377       -0.157310
6
  Step 6: 6.0 fs
C       -0.007543        0.633731       -0.011062
H        0.874641        1.268792        0.079275
H       -0.912055        1.211763       -0.065283
C        0.013881       -0.650141        0.028237
H       -1.003797       -1.032618       -0.053029
H        0.965763       -1.252507       -0.165465
6
  Step 7: 7.0 fs
C       -0.007745        0.640938       -0.011833
H        0.879447        1.273872        0.084248
H       -0.911935        1.197330       -0.070778
C        0.019385       -0.660796        0.029454
H       -0.986360       -1.026138       -0.058346
H        0.880275       -1.208561       -0.164921
6
  Step 8: 8.0 fs
C       -0.006647        0.649978       -0.012076
H        0.885321        1.277664        0.085823
H       -0.921197        1.186837       -0.074494
C        0.023241       -0.671083        0.029906
H       -0.971016       -1.034540       -0.062956
H        0.809341       -1.178605       -0.160664
6
  Step 9: 9.0 fs
C       -0.004264        0.659703       -0.011753
H        0.891320        1.280342        0.083928
H       -0.939451        1.181169       -0.076276
C        0.022445       -0.677745        0.030293
H       -0.961929       -1.058139       -0.066941
H        0.793612       -1.188486       -0.161460
6
  Step 10: 10.0 fs
C       -0.000990        0.669281       -0.010892
H        0.896969        1.282438        0.078742
H       -0.962549        1.179271       -0.075843
C        0.016638       -0.679708        0.030729
H       -0.960528       -1.095470       -0.070159
H        0.839822       -1.242008       -0.168930
6
  Step 11: 11.0 fs
C        0.002546        0.678167       -0.009574
H        0.902227        1.284624        0.070651
H       -0.984402        1.179224       -0.072921
C        0.008855       -0.678765        0.030494
H       -0.964787       -1.143254       -0.072218
H        0.911248       -1.313391       -0.174593
6
  Step 12: 12.0 fs
C        0.005724        0.685945       -0.007896
H        0.907283        1.287477        0.060147
H       -0.999440        1.179374       -0.067386
C        0.001506       -0.676833        0.029038
H       -0.969550       -1.196464       -0.072498
H        0.975659       -1.378796       -0.171988
6
  Step 13: 13.0 fs
C        0.008096        0.692251       -0.005946
H        0.912252        1.291246        0.047732
H       -1.004123        1.178911       -0.059315
C       -0.004468       -0.675046        0.026199
H       -0.968947       -1.249195       -0.070368
H        1.017660       -1.425718       -0.159192
6
  Step 14: 14.0 fs
C        0.009467        0.696768       -0.003797
H        0.916914        1.295689        0.033882
H       -0.997541        1.178012       -0.048975
C       -0.008809       -0.674006        0.022039
H       -0.958850       -1.295945       -0.065442
H        1.031692       -1.448679       -0.136659
6
  Step 15: 15.0 fs
C        0.009908        0.699227       -0.001508
H        0.920670        1.300067        0.019057
H       -0.981501        1.177825       -0.036787
C       -0.011414       -0.674011        0.016725
H       -0.937878       -1.332500       -0.057660
H        1.016688       -1.445519       -0.105782
6
  Step 16: 16.0 fs
C        0.009723        0.699394        0.000864
H        0.922755        1.303308        0.003737
H       -0.960227        1.180311       -0.023266
C       -0.012183       -0.675100        0.010500
H       -0.907702       -1.356544       -0.047305
H        0.974519       -1.416220       -0.068474
6
  Step 17: 17.0 fs
C        0.009338        0.697092        0.003259
H        0.922604        1.304300       -0.011546
H       -0.939386        1.187818       -0.008943
C       -0.011110       -0.676981        0.003672
H       -0.872931       -1.367956       -0.034923
H        0.910869       -1.363493       -0.027112
6
  Step 18: 18.0 fs
C        0.009106        0.692255        0.005602
H        0.920192        1.302155       -0.026205
H       -0.924038        1.202141        0.005680
C       -0.008657       -0.678780       -0.003404
H       -0.840613       -1.368905       -0.021249
H        0.839177       -1.295700        0.015613
6
  Step 19: 19.0 fs
C        0.009093        0.685054        0.007803
H        0.916180        1.296394       -0.039599
H       -0.916224        1.223284        0.020094
C       -0.006381       -0.678747       -0.010436
H       -0.818868       -1.363390       -0.007052
H        0.786682       -1.231245        0.057910
6
  Step 20: 20.0 fs
C        0.009015        0.676008        0.009773
H        0.911806        1.286967       -0.051059
H       -0.914135        1.248887        0.033684
C       -0.006738       -0.674811       -0.017410
H       -0.813870       -1.355558        0.006982
H        0.789153       -1.194399        0.101333
6
  Step 21: 21.0 fs
C        0.008385        0.666029        0.011433
H        0.908559        1.274157       -0.059957
H       -0.913586        1.274967        0.045725
C       -0.010143       -0.667030       -0.024344
H       -0.826814       -1.347566        0.020332
H        0.852848       -1.189477        0.147632
6
  Step 22: 22.0 fs
C        0.006768        0.656305        0.012736
H        0.907755        1.258450       -0.065820
H       -0.910435        1.297345        0.055549
C       -0.014159       -0.657951       -0.030716
H       -0.853314       -1.338686        0.032559
H        0.944071       -1.197340        0.191810
6
  Step 23: 23.0 fs
C        0.003978        0.648046        0.013665
H        0.910202        1.240432       -0.068368
H       -0.902210        1.312828        0.062695
C       -0.016772       -0.650121       -0.035886
H       -0.885600       -1.326350        0.043173
H        1.030032       -1.202030        0.227083
6
  Step 24: 24.0 fs
C        0.000111        0.642261        0.014223
H        0.916076        1.220732       -0.067473
H       -0.888610        1.319858        0.066935
C       -0.017295       -0.645221       -0.039453
H       -0.915793       -1.308172        0.051624
H        1.093010       -1.196996        0.249324
6
  Step 25: 25.0 fs
C       -0.004487        0.639564        0.014411
H        0.924962        1.200010       -0.063125
H       -0.871507        1.318831        0.068267
C       -0.015693       -0.644135       -0.041231
H       -0.938176       -1.283409        0.057443
H        1.125086       -1.180826        0.256764
6
  Step 26: 26.0 fs
C       -0.009272        0.640023        0.014219
H        0.935980        1.179020       -0.055422
H       -0.854792        1.312204        0.066881
C       -0.012096       -0.647021       -0.041162
H       -0.949895       -1.253277        0.060371
H        1.123223       -1.154425        0.248981
6
  Step 27: 27.0 fs
C       -0.013572        0.643135        0.013627
H        0.947940        1.158703       -0.044577
H       -0.843796        1.304146        0.063104
C       -0.006643       -0.653352       -0.039284
H       -0.951086       -1.220810        0.060440
H        1.087732       -1.120193        0.226526
6
  Step 28: 28.0 fs
C       -0.016746        0.648019        0.012619
H        0.959535        1.140235       -0.030923
H       -0.843514        1.299090        0.057292
C        0.000370       -0.661975       -0.035763
H       -0.944604       -1.190374        0.057962
H        1.023661       -1.082578        0.191247
6
  Step 29: 29.0 fs
C       -0.018415        0.653737        0.011207
H        0.969560        1.124988       -0.014931
H       -0.856030        1.299500        0.049713
C        0.007973       -0.671155       -0.030984
H       -0.935290       -1.166878        0.053409
H        0.946190       -1.050011        0.147294
6
  Step 30: 30.0 fs
C       -0.018606        0.659573        0.009456
H        0.977094        1.114397        0.002774
H       -0.878826        1.304425        0.040533
C        0.013744       -0.678607       -0.025601
H       -0.928372       -1.154609        0.047228
H        0.888097       -1.037363        0.101712
6
  Step 31: 31.0 fs
C       -0.017681        0.665089        0.007474
H        0.981564        1.109760        0.021392
H       -0.905734        1.310245        0.029996
C        0.014522       -0.682074       -0.020193
H       -0.927390       -1.155987        0.039659
H        0.889274       -1.061554        0.060401
6
  Step 32: 32.0 fs
C       -0.016110        0.670073        0.005393
H        0.982685        1.112021        0.040010
H       -0.929814        1.312879        0.018546
C        0.010497       -0.681180       -0.014712
H       -0.933175       -1.171118        0.030749
H        0.947237       -1.121304        0.021656
6
  Step 33: 33.0 fs
C       -0.014285        0.674423        0.003338
H        0.980374        1.121576        0.057758
H       -0.945824        1.309528        0.006737
C        0.004903       -0.677525       -0.009007
H       -0.943285       -1.197632        0.020428
H        1.020555       -1.196297       -0.017419
6
  Step 34: 34.0 fs
C       -0.012445        0.678054        0.001409
H        0.974714        1.138181        0.073906
H       -0.951149        1.299163       -0.004870
C       -0.000041       -0.672842       -0.003235
H       -0.952501       -1.230975        0.008686
H        1.077726       -1.268180       -0.055969
6
  Step 35: 35.0 fs
C       -0.010646        0.680852       -0.000313
H        0.965893        1.160989        0.087860
H       -0.946115        1.282586       -0.015784
C       -0.003585       -0.668374        0.002318
H       -0.955187       -1.265638       -0.004265
H        1.104972       -1.326253       -0.091671
6
  Step 36: 36.0 fs
C       -0.008753        0.682661       -0.001761
H        0.954175        1.188655        0.099135
H       -0.933918        1.262259       -0.025644
C       -0.005602       -0.664960        0.007367
H       -0.947529       -1.296532       -0.017956
H        1.098315       -1.364881       -0.122283
6
  Step 37: 37.0 fs
C       -0.006472        0.683281       -0.002871
H        0.939918        1.219488        0.107345
H       -0.920155        1.241896       -0.034245
C       -0.006077       -0.663140        0.011655
H       -0.928520       -1.319828       -0.031771
H        1.058297       -1.381090       -0.145902
6
  Step 38: 38.0 fs
C       -0.003465        0.682520       -0.003587
H        0.923640        1.251605        0.112205
H       -0.911376        1.225484       -0.041530
C       -0.004974       -0.663167        0.014959
H       -0.900233       -1.333393       -0.045057
H        0.988572       -1.373848       -0.161003
6
  Step 39: 39.0 fs
C        0.000425        0.680317       -0.003863
H        0.906119        1.283123        0.113543
H       -0.912262        1.215576       -0.047469
C       -0.002349       -0.664898        0.017128
H       -0.867910       -1.337093       -0.057254
H        0.897094       -1.344910       -0.166750
6
  Step 40: 40.0 fs
C        0.004974        0.676835       -0.003681
H        0.888353        1.312342        0.111323
H       -0.923115        1.211932       -0.051892
C        0.001243       -0.667510        0.018183
H       -0.839496       -1.332751       -0.068011
H        0.800372       -1.302260       -0.164082
6
  Step 41: 41.0 fs
C        0.009614        0.672455       -0.003054
H        0.871420        1.337809        0.105642
H       -0.939873        1.211747       -0.054445
C        0.004099       -0.669079        0.018482
H       -0.824059       -1.323541       -0.077207
H        0.729377       -1.265907       -0.157674
6
  Step 42: 42.0 fs
C        0.013662        0.667695       -0.002023
H        0.856315        1.358332        0.096738
H       -0.956602        1.211255       -0.054739
C        0.003702       -0.667112        0.018654
H       -0.828160       -1.312178       -0.084847
H        0.721837       -1.264034       -0.155165
6
  Step 43: 43.0 fs
C        0.016554        0.663192       -0.000641
H        0.843880        1.372981        0.085016
H       -0.968232        1.207407       -0.052577
C       -0.000084       -0.661610        0.018744
H       -0.852344       -1.299176       -0.090804
H        0.780739       -1.299728       -0.157179
6
  Step 44: 44.0 fs
C        0.017960        0.659620        0.001028
H        0.834816        1.381155        0.071018
H       -0.971927        1.198672       -0.048016
C       -0.004682       -0.655453        0.018125
H       -0.890693       -1.282762       -0.094669
H        0.869852       -1.346356       -0.156383
6
  Step 45: 45.0 fs
C        0.017819        0.657490        0.002921
H        0.829770        1.382716        0.055362
H       -0.967449        1.185148       -0.041315
C       -0.008152       -0.651183        0.016375
H       -0.933820       -1.260495       -0.095868
H        0.956545       -1.382135       -0.147921
6
  Step 46: 46.0 fs
C        0.016323        0.656995        0.004979
H        0.829345        1.378049        0.038685
H       -0.957114        1.168488       -0.032860
C       -0.009794       -0.650063        0.013412
H       -0.972840       -1.231107       -0.093946
H        1.023031       -1.397624       -0.130846
6
  Step 47: 47.0 fs
C        0.013876        0.657958        0.007148
H        0.833995        1.367972        0.021610
H       -0.945448        1.151701       -0.023091
C       -0.009483       -0.652402        0.009344
H       -1.001485       -1.195207       -0.088752
H        1.060788       -1.390271       -0.106127
6
  Step 48: 48.0 fs
C        0.011029        0.659891        0.009379
H        0.843787        1.353547        0.004721
H       -0.938197        1.138575       -0.012441
C       -0.007221       -0.657869        0.004364
H       -1.016677       -1.155207       -0.080471
H        1.065911       -1.360638       -0.075434
6
  Step 49: 49.0 fs
C        0.008302        0.662169        0.011606
H        0.858165        1.335864       -0.011432
H       -0.940029        1.132418       -0.001254
C       -0.003029       -0.665653       -0.001271
H       -1.018587       -1.114969       -0.069556
H        1.037823       -1.311465       -0.040803
6
  Step 50: 50.0 fs
C        0.005973        0.664243        0.013749
H        0.875847        1.315896       -0.026312
H       -0.951853        1.134662        0.010210
C        0.002915       -0.674531       -0.007258
H       -1.010273       -1.079260       -0.056631
H        0.980617       -1.248438       -0.004538
6
  Step 51: 51.0 fs
C        0.003987        0.665779        0.015710
H        0.894943        1.294470       -0.039364
H       -0.969912        1.144311        0.021659
C        0.009766       -0.682773       -0.013282
H       -0.996960       -1.053068       -0.042343
H        0.908345       -1.182994        0.031153
6
  Step 52: 52.0 fs
C        0.002082        0.666647        0.017387
H        0.913287        1.272322       -0.050008
H       -0.987634        1.158723        0.032648
C        0.015251       -0.688021       -0.019171
H       -0.984478       -1.040663       -0.027208
H        0.852619       -1.135497        0.065821
6
  Step 53: 53.0 fs
C        0.000001        0.666864        0.018677
H        0.928855        1.250174       -0.057661
H       -0.998651        1.174959        0.042586
C        0.016285       -0.687986       -0.025070
H       -0.977212       -1.044692       -0.011557
H        0.853273       -1.128557        0.102759
6
  Step 54: 54.0 fs
C       -0.002384        0.666574        0.019499
H        0.940146        1.228807       -0.061841
H       -0.998797        1.190749        0.050874
C        0.012955       -0.682694       -0.030989
H       -0.976875       -1.065794        0.004369
H        0.909846       -1.161427        0.143418
6
  Step 55: 55.0 fs
C       -0.005042        0.665994        0.019806
H        0.946471        1.209106       -0.062295
H       -0.986816        1.204914        0.057080
C        0.008302       -0.674361       -0.036336
H       -0.981439       -1.102213        0.020218
H        0.983155       -1.211784        0.181836
6
  Step 56: 56.0 fs
C       -0.007792        0.665319        0.019590
H        0.948118        1.192077       -0.059019
H       -0.964415        1.217471        0.060991
C        0.004347       -0.665214       -0.040483
H       -0.985245       -1.149640        0.035309
H        1.042741       -1.260747        0.211498
6
  Step 57: 57.0 fs
C       -0.010334        0.664671        0.018872
H        0.946353        1.178767       -0.052223
H       -0.935949        1.229686        0.062605
C        0.001635       -0.656940       -0.043042
H       -0.981633       -1.202131        0.048644
H        1.074992       -1.297952        0.228774
6
  Step 58: 58.0 fs
C       -0.012304        0.664078        0.017687
H        0.943140        1.170108       -0.042263
H       -0.907621        1.243873        0.062096
C        0.000110       -0.650784       -0.043819
H       -0.965838       -1.253598        0.059136
H        1.075705       -1.318244        0.232187
6
  Step 59: 59.0 fs
C       -0.013382        0.663519        0.016082
H        0.940587        1.166669       -0.029576
H       -0.885584        1.262467        0.059690
C       -0.000371       -0.647621       -0.042740
H       -0.936198       -1.298861        0.065856
H        1.045149       -1.319125        0.221455
6
  Step 60: 60.0 fs
C       -0.013447        0.663023        0.014112
H        0.940252        1.168409       -0.014625
H       -0.873335        1.286381        0.055513
C        0.000087       -0.647880       -0.039837
H       -0.894567       -1.334503        0.068199
H        0.986926       -1.300153        0.197232
6
  Step 61: 61.0 fs
C       -0.012653        0.662746        0.011851
H        0.942607        1.174527        0.002094
H       -0.870274        1.313837        0.049532
C        0.001268       -0.651366       -0.035292
H       -0.846270       -1.359413        0.066005
H        0.909700       -1.263999        0.161485
6
  Step 62: 62.0 fs
C       -0.011337        0.662921        0.009387
H        0.946911        1.183521        0.020001
H       -0.872588        1.340751        0.041674
C        0.002379       -0.656935       -0.029514
H       -0.799719       -1.375157        0.059583
H        0.832259       -1.219922        0.118398
6
  Step 63: 63.0 fs
C       -0.009841        0.663735        0.006819
H        0.951564        1.193461        0.038358
H       -0.875602        1.362429        0.032040
C        0.001495       -0.662213       -0.023149
H       -0.765095       -1.385898        0.049681
H        0.788719       -1.187651        0.074374
6
  Step 64: 64.0 fs
C       -0.008396        0.665284        0.004256
H        0.954759        1.202391        0.056245
H       -0.875820        1.375282        0.021001
C       -0.003367       -0.664753       -0.016673
H       -0.750929       -1.396510        0.037241
H        0.812268       -1.187012        0.033369
6
  Step 65: 65.0 fs
C       -0.007118        0.667607        0.001813
H        0.955156        1.208746        0.072664
H       -0.871737        1.377643        0.009136
C       -0.010976       -0.664742       -0.010055
H       -0.759964       -1.409324        0.022991
H        0.892204       -1.210696       -0.006629
6
  Step 66: 66.0 fs
C       -0.006006        0.670615       -0.000413
H        0.952332        1.211685        0.086762
H       -0.864057        1.369992       -0.002951
C       -0.018278       -0.664124       -0.003341
H       -0.787678       -1.422103        0.007320
H        0.988765       -1.236380       -0.046417
6
  Step 67: 67.0 fs
C       -0.004955        0.673982       -0.002344
H        0.946975        1.211251        0.097972
H       -0.855526        1.354766       -0.014774
C       -0.023496       -0.664360        0.003193
H       -0.825053       -1.429507       -0.009436
H        1.072581       -1.250580       -0.083858
6
  Step 68: 68.0 fs
C       -0.003803        0.677149       -0.003929
H        0.940762        1.208329        0.106042
H       -0.850351        1.335832       -0.026012
C       -0.026132       -0.666096        0.009227
H       -0.862824       -1.426349       -0.026725
H        1.129072       -1.248911       -0.116382
6
  Step 69: 69.0 fs
C       -0.002413        0.679459       -0.005131
H        0.935915        1.204406        0.110980
H       -0.852888        1.317368       -0.036477
C       -0.026192       -0.669404        0.014473
H       -0.894063       -1.409729       -0.043808
H        1.151864       -1.231250       -0.141906
6
  Step 70: 70.0 fs
C       -0.000797        0.680371       -0.005928
H        0.934437        1.201150        0.112936
H       -0.865450        1.302143       -0.046033
C       -0.023786       -0.673989        0.018687
H       -0.914806       -1.379397       -0.059946
H        1.138755       -1.199364       -0.158861
6
  Step 71: 71.0 fs
C        0.000816        0.679636       -0.006305
H        0.937234        1.199868        0.112052
H       -0.886673        1.290405       -0.054444
C       -0.019037       -0.679275        0.021688
H       -0.924154       -1.337612       -0.074554
H        1.090782       -1.156438       -0.166203
6
  Step 72: 72.0 fs
C        0.002065        0.677329       -0.006251
H        0.943560        1.201092        0.108366
H       -0.911891        1.280298       -0.061318
C       -0.012248       -0.684407        0.023392
H       -0.924199       -1.288743       -0.087333
H        1.014021       -1.107846       -0.163791
6
  Step 73: 73.0 fs
C        0.002632        0.673747       -0.005757
H        0.951162        1.204497        0.101810
H       -0.935217        1.269297       -0.066170
C       -0.004447       -0.688124        0.023930
H       -0.919723       -1.238627       -0.098367
H        0.925644       -1.063446       -0.153630
6
  Step 74: 74.0 fs
C        0.002374        0.669280       -0.004817
H        0.957083        1.209198        0.092328
H       -0.951737        1.255500       -0.068599
C        0.001820       -0.688624        0.023801
H       -0.917106       -1.193478       -0.108055
H        0.862070       -1.040359       -0.141699
6
  Step 75: 75.0 fs
C        0.001372        0.664342       -0.003436
H        0.958588        1.214182        0.080046
H       -0.958753        1.238213       -0.068424
C        0.003403       -0.684171        0.023666
H       -0.922014       -1.158331       -0.116843
H        0.865571       -1.057408       -0.135637
6
  Step 76: 76.0 fs
C       -0.000110        0.659374       -0.001653
H        0.953916        1.218717        0.065402
H       -0.956249        1.218144       -0.065757
C        0.000976       -0.675146        0.023436
H       -0.937042       -1.135928       -0.124893
H        0.929316       -1.112580       -0.134095
6
  Step 77: 77.0 fs
C       -0.001683        0.654837        0.000468
H        0.942774        1.222620        0.049114
H       -0.946913        1.197340       -0.060977
C       -0.001986       -0.663964        0.022484
H       -0.959945       -1.126155       -0.131741
H        1.008030       -1.184568       -0.129668
6
  Step 78: 78.0 fs
C       -0.002912        0.651142        0.002850
H        0.926542        1.226399        0.032034
H       -0.935682        1.178853       -0.054634
C       -0.003480       -0.653093        0.020441
H       -0.984187       -1.126412       -0.136274
H        1.069699       -1.255044       -0.118433
6
  Step 79: 79.0 fs
C       -0.003441        0.648617        0.005412
H        0.908122        1.231260        0.015025
H       -0.928395        1.165950       -0.047312
C       -0.003101       -0.644435        0.017218
H       -1.002136       -1.133043       -0.137216
H        1.100557       -1.313379       -0.099933
6
  Step 80: 80.0 fs
C       -0.003150        0.647515        0.008069
H        0.891240        1.238832       -0.001153
H       -0.929373        1.160788       -0.039442
C       -0.001032       -0.639328        0.012882
H       -1.008116       -1.142733       -0.133679
H        1.096306       -1.353779       -0.075164
6
  Step 81: 81.0 fs
C       -0.002234        0.648033        0.010734
H        0.879241        1.250528       -0.015891
H       -0.939290        1.163320       -0.031220
C        0.002477       -0.638550        0.007587
H       -0.999578       -1.153115       -0.125348
H        1.057005       -1.373047       -0.045666
6
  Step 82: 82.0 fs
C       -0.001105        0.650278        0.013313
H        0.873808        1.266745       -0.028684
H       -0.954933        1.171291       -0.022681
C        0.007225       -0.642243        0.001565
H       -0.977408       -1.163004       -0.112502
H        0.985936       -1.370105       -0.013266
6
  Step 83: 83.0 fs
C       -0.000171        0.654202        0.015707
H        0.874307        1.286364       -0.039035
H       -0.971018        1.181338       -0.013860
C        0.012915       -0.649778       -0.004887
H       -0.946046       -1.172501       -0.095951
H        0.891292       -1.347258        0.020034
6
  Step 84: 84.0 fs
C        0.000332        0.659537        0.017811
H        0.878246        1.306987       -0.046411
H       -0.982533        1.190311       -0.004938
C        0.018680       -0.659465       -0.011457
H       -0.913293       -1.182921       -0.076906
H        0.791488       -1.314612        0.052612
6
  Step 85: 85.0 fs
C        0.000387        0.665806        0.019524
H        0.882450        1.325743       -0.050286
H       -0.986310        1.196115        0.003717
C        0.022458       -0.668212       -0.017999
H       -0.888795       -1.196246       -0.056743
H        0.720931       -1.296337        0.085180
6
  Step 86: 86.0 fs
C        0.000144        0.672439        0.020755
H        0.884280        1.340136       -0.050248
H       -0.981594        1.198035        0.011610
C        0.021933       -0.672712       -0.024693
H       -0.880265       -1.213749       -0.036644
H        0.715003       -1.320540        0.122190
6
  Step 87: 87.0 fs
C       -0.000162        0.678926        0.021453
H        0.882396        1.348610       -0.046135
H       -0.970136        1.196826        0.018256
C        0.017902       -0.673070       -0.031401
H       -0.889482       -1.234576       -0.017453
H        0.766284       -1.379941        0.163805
6
  Step 88: 88.0 fs
C       -0.000261        0.684787        0.021604
H        0.877048        1.350802       -0.038105
H       -0.955860        1.194476        0.023310
C        0.012963       -0.671927       -0.037388
H       -0.911203       -1.255306        0.000200
H        0.839068       -1.442442        0.202553
6
  Step 89: 89.0 fs
C        0.000087        0.689488        0.021227
H        0.870037        1.347604       -0.026593
H       -0.943859        1.193568        0.026604
C        0.008563       -0.671234       -0.042004
H       -0.936442       -1.271312        0.015613
H        0.907566       -1.486548        0.231786
6
  Step 90: 90.0 fs
C        0.000970        0.692485        0.020360
H        0.864331        1.340929       -0.012185
H       -0.938488        1.196272        0.028091
C        0.005118       -0.671834       -0.044889
H       -0.957028       -1.278852        0.028021
H        0.958988       -1.503575        0.248159
6
  Step 91: 91.0 fs
C        0.002224        0.693370        0.019051
H        0.863142        1.333041        0.004518
H       -0.941248        1.203285        0.027753
C        0.002701       -0.673914       -0.045880
H       -0.967638       -1.276017        0.036749
H        0.987411       -1.491287        0.250443
6
  Step 92: 92.0 fs
C        0.003471        0.691991        0.017354
H        0.868565        1.325587        0.022992
H       -0.949986        1.213454        0.025564
C        0.001389       -0.677290       -0.044937
H       -0.966379       -1.263010        0.041364
H        0.990235       -1.450391        0.238519
6
  Step 93: 93.0 fs
C        0.004312        0.688491        0.015325
H        0.880460        1.318790        0.042749